ITEM: TIMESTEP
1
ITEM: NUMBER OF ATOMS
108
ITEM: BOX BOUNDS pp pp pp
-8.196006 8.196006
-8.196006 8.196006
-8.196006 8.196006
ITEM: ATOMS id type xs ys zs
1 1 0.9997624 0.0004231 0.9997234
2 1 0.0000728 0.1666314 0.1663212
3 1 0.1661548 0.9996806 0.1664347
4 1 0.1670294 0.1661528 0.9998086
5 1 0.0001665 0.9999676 0.3333225
6 1 0.9994383 0.1666229 0.4999015
7 1 0.1664740 0.0000328 0.4999353
8 1 0.1668771 0.1667150 0.3335049
9 1 0.9999874 0.9998871 0.6667434
10 1 0.0000822 0.1664012 0.8333613
11 1 0.1674080 0.0001405 0.8335987
12 1 0.1664612 0.1666635 0.6667236
13 1 0.9999353 0.3332207 0.9996044
14 1 0.0003622 0.4999814 0.1662648
15 1 0.1668670 0.3334725 0.1666778
16 1 0.1668058 0.5002945 0.9997059
17 1 0.0000850 0.3332082 0.3332428
18 1 0.0003756 0.4996529 0.5002697
19 1 0.1666846 0.3338596 0.5001705
20 1 0.1665942 0.4996842 0.3333442
21 1 0.0002431 0.3335575 0.6661537
22 1 0.9997728 0.4997407 0.8341117
23 1 0.1661856 0.3335266 0.8330955
24 1 0.1662420 0.4998554 0.6667839
25 1 0.0002015 0.6666036 0.0001222
26 1 0.9997928 0.8335135 0.1667425
27 1 0.1671103 0.6658436 0.1669525
28 1 0.1668045 0.8330617 0.9996471
29 1 0.0001876 0.6664424 0.3335316
30 1 0.9997600 0.8333763 0.4996490
31 1 0.1666719 0.6669387 0.4999936
32 1 0.1664773 0.8332613 0.3333501
33 1 0.0001637 0.6665330 0.6669566
34 1 0.9999418 0.8335827 0.8338855
35 1 0.1667313 0.6663527 0.8333062
36 1 0.1660872 0.8330459 0.6668896
37 1 0.3331218 0.9998613 0.0001385
38 1 0.3334340 0.1664927 0.1664218
39 1 0.4997190 0.0000092 0.1667689
40 1 0.4996181 0.1666101 0.0003625
41 1 0.3331734 0.9999557 0.3332629
42 1 0.3330520 0.1664160 0.4999693
43 1 0.4996306 0.9997694 0.5000805
44 1 0.4998923 0.1662747 0.3327822
45 1 0.3332783 0.9997509 0.6666210
46 1 0.3332560 0.1664855 0.8335470
47 1 0.5000108 0.9995985 0.8335700
48 1 0.4998324 0.1665744 0.6664447
49 1 0.3327898 0.3333892 0.9999143
50 1 0.3329091 0.4994950 0.1664764
51 1 0.5001813 0.3332405 0.1663207
52 1 0.4997616 0.4997739 0.9999729
53 1 0.3338535 0.3331452 0.3334220
54 1 0.3335568 0.5003378 0.5001803
55 1 0.4995459 0.3330434 0.5004321
56 1 0.4999881 0.4998806 0.3332253
57 1 0.3333704 0.3332183 0.6665777
58 1 0.3332385 0.5001045 0.8333326
59 1 0.5000018 0.3332499 0.8331833
60 1 0.4999124 0.5004571 0.6665900
61 1 0.3332319 0.6670191 0.0001307
62 1 0.3334271 0.8335354 0.1668669
63 1 0.4998300 0.6667190 0.1673113
64 1 0.5001421 0.8333224 0.9997062
65 1 0.3330619 0.6666184 0.3336294
66 1 0.3333095 0.8332752 0.5000538
67 1 0.5001618 0.6665512 0.4996664
68 1 0.5000884 0.8333327 0.3336164
69 1 0.3333256 0.6669738 0.6665548
70 1 0.3333082 0.8336176 0.8337778
71 1 0.5001617 0.6667242 0.8334667
72 1 0.5005502 0.8328611 0.6665480
73 1 0.6670287 0.9999784 0.0004314
74 1 0.6668886 0.1666484 0.1667470
75 1 0.8331880 0.0005804 0.1667857
76 1 0.8335090 0.1663416 0.0001430
77 1 0.6666465 0.0006744 0.3331288
78 1 0.6667407 0.1661635 0.4998396
79 1 0.8333044 0.0000169 0.5003557
80 1 0.8330465 0.1664829 0.3329675
81 1 0.6667352 0.9999012 0.6670026
82 1 0.6663756 0.1667616 0.8333335
83 1 0.8333384 0.0002309 0.8336689
84 1 0.8336449 0.1667123 0.6663263
85 1 0.6662955 0.3325759 0.0005667
86 1 0.6667144 0.5000825 0.1663716
87 1 0.8333626 0.3333090 0.1665536
88 1 0.8337157 0.5000026 0.0001826
89 1 0.6666696 0.3333152 0.3330425
90 1 0.6667568 0.4997454 0.5000038
91 1 0.8336179 0.3332956 0.5002504
92 1 0.8335639 0.5000368 0.3333814
93 1 0.6667694 0.3328281 0.6664313
94 1 0.6667601 0.5001796 0.8333398
95 1 0.8334472 0.3330700 0.8332158
96 1 0.8331877 0.4999161 0.6670459
97 1 0.6670274 0.6662588 0.9999524
98 1 0.6665514 0.8331774 0.1663721
99 1 0.8328143 0.6670750 0.1662527
100 1 0.8329891 0.8331954 0.9998485
101 1 0.6671987 0.6665815 0.3331964
102 1 0.6666949 0.8333705 0.5003776
103 1 0.8327538 0.6666437 0.5001966
104 1 0.8330431 0.8334509 0.3335510
105 1 0.6668426 0.6664221 0.6665420
106 1 0.6667772 0.8334365 0.8332555
107 1 0.8334117 0.6666955 0.8331017
108 1 0.8330736 0.8335100 0.6661836
ITEM: TIMESTEP
2
ITEM: NUMBER OF ATOMS
108
ITEM: BOX BOUNDS pp pp pp
-8.196006 8.196006
-8.196006 8.196006
-8.196006 8.196006
ITEM: ATOMS id type xs ys zs
1 1 0.0000954 0.9999595 0.0000921
2 1 0.9994206 0.1666424 0.1664115
3 1 0.1671232 0.9999946 0.1669459
4 1 0.1665241 0.1666705 0.0001543
5 1 0.0000466 0.9996681 0.3337324
6 1 0.0003015 0.1663237 0.5002895
7 1 0.1671494 0.9999453 0.5003365
8 1 0.1665852 0.1662653 0.3333748
9 1 0.0001940 0.0000079 0.6668788
10 1 0.9999410 0.1665303 0.8335034
11 1 0.1670637 0.0000202 0.8336619
12 1 0.1669173 0.1665872 0.6672409
13 1 0.0000026 0.3331387 0.0000818
14 1 0.9999651 0.5000496 0.1667101
15 1 0.1662430 0.3332205 0.1669366
16 1 0.1667138 0.4998487 0.0001621
17 1 0.0001919 0.3331871 0.3331980
18 1 0.0000174 0.4996570 0.5008208
19 1 0.1663809 0.3332962 0.5000355
20 1 0.1670160 0.5001150 0.3335496
21 1 0.9996983 0.3338690 0.6669275
22 1 0.9995393 0.4999027 0.8334112
23 1 0.1664846 0.3331417 0.8337400
24 1 0.1668848 0.4999238 0.6667419
25 1 0.9998909 0.6669701 0.9995308
26 1 0.0003558 0.8332960 0.1666759
27 1 0.1665487 0.6664129 0.1669138
28 1 0.1660473 0.8332416 0.9996418
29 1 0.0001406 0.6665869 0.3331710
30 1 0.9994225 0.8329271 0.5000336
31 1 0.1662786 0.6667384 0.4995789
32 1 0.1669014 0.8334651 0.3333548
33 1 0.0001100 0.6664114 0.6669055
34 1 0.9995920 0.8333389 0.8329376
35 1 0.1668788 0.6669539 0.8326956
36 1 0.1666947 0.8332140 0.6661516
37 1 0.3332262 0.0000250 0.9998133
38 1 0.3330564 0.1665181 0.1669893
39 1 0.4998496 0.9996612 0.1671201
40 1 0.5007393 0.1666600 0.9998422
41 1 0.3333705 0.9998750 0.3332272
42 1 0.3329211 0.1669950 0.5001052
43 1 0.4995206 0.9998628 0.4998740
44 1 0.4998653 0.1663280 0.3330745
45 1 0.3331378 0.9999554 0.6671322
46 1 0.3330424 0.1670006 0.8331952
47 1 0.5000812 0.0003245 0.8335416
48 1 0.4999211 0.1664948 0.6666995
49 1 0.3331773 0.3339167 0.0000876
50 1 0.3329551 0.5000409 0.1665356
51 1 0.5003390 0.3333599 0.1669623
52 1 0.5000744 0.5004709 0.0001048
53 1 0.3334145 0.3335584 0.3334818
54 1 0.3333863 0.4996202 0.4997738
55 1 0.4998397 0.3334843 0.5000170
56 1 0.4994435 0.4998626 0.3334356
57 1 0.3336677 0.3336134 0.6666249
58 1 0.3336291 0.5001169 0.8330124
59 1 0.4997000 0.3334208 0.8330479
60 1 0.4997417 0.5004278 0.6666207
61 1 0.3337034 0.6666991 0.9996841
62 1 0.3330983 0.8333371 0.1661595
63 1 0.5001712 0.6670000 0.1663934
64 1 0.4998467 0.8330325 0.0001349
65 1 0.3334061 0.6665166 0.3335830
66 1 0.3333891 0.8331685 0.5003567
67 1 0.4998421 0.6664075 0.5001872
68 1 0.4998166 0.8332599 0.3334477
69 1 0.3335639 0.6664961 0.6667061
70 1 0.3334204 0.8334135 0.8331229
71 1 0.5001946 0.6668059 0.8334665
72 1 0.5000496 0.8330148 0.6665907
73 1 0.6670073 0.9996992 0.0002501
74 1 0.6667134 0.1666471 0.1664612
75 1 0.8333581 0.0001345 0.1665305
76 1 0.8329625 0.1667396 0.9998788
77 1 0.6666858 0.9999270 0.3329575
78 1 0.6671668 0.1664922 0.4997591
79 1 0.8331649 0.9996617 0.4999099
80 1 0.8327655 0.1665246 0.3330968
81 1 0.6668504 0.9998926 0.6664748
82 1 0.6671249 0.1662408 0.8333635
83 1 0.8338659 0.9998757 0.8332357
84 1 0.8331036 0.1666341 0.6670387
85 1 0.6662992 0.3329787 0.9993072
86 1 0.6665889 0.4996663 0.1668913
87 1 0.8331272 0.3334190 0.1667456
88 1 0.8336042 0.4997632 0.9999439
89 1 0.6666784 0.3333012 0.3332027
90 1 0.6664476 0.4999278 0.5000950
91 1 0.8336117 0.3329696 0.5004943
92 1 0.8335992 0.4999837 0.3334586
93 1 0.6669610 0.3330310 0.6665983
94 1 0.6668162 0.5001476 0.8331425
95 1 0.8335396 0.3332019 0.8332603
96 1 0.8332643 0.5000272 0.6670002
97 1 0.6665333 0.6664985 0.0002754
98 1 0.6663569 0.8330655 0.1663838
99 1 0.8335678 0.6660429 0.1669175
100 1 0.8334853 0.8333431 0.0000551
101 1 0.6664589 0.6669126 0.3332527
102 1 0.6664576 0.8330456 0.4999912
103 1 0.8332794 0.6671177 0.4994794
104 1 0.8334547 0.8330355 0.3329169
105 1 0.6667651 0.6667053 0.6669588
106 1 0.6666431 0.8332362 0.8333724
107 1 0.8334127 0.6662740 0.8333874
108 1 0.8333042 0.8333286 0.6664977
ITEM: TIMESTEP
3
ITEM: NUMBER OF ATOMS
108
ITEM: BOX BOUNDS pp pp pp
-8.196006 8.196006
-8.196006 8.196006
-8.196006 8.196006
ITEM: ATOMS id type xs ys zs
1 1 0.0002871 0.9994791 0.0001053
2 1 0.9999668 0.1662548 0.1671277
3 1 0.1663648 0.9998546 0.1663930
4 1 0.1664981 0.1667198 0.0001148
5 1 0.0004278 0.9998703 0.3334719
6 1 0.0000025 0.1669974 0.4999734
7 1 0.1669521 0.9998624 0.4999585
8 1 0.1669047 0.1666242 0.3330785
9 1 0.0001399 0.0000456 0.6666195
10 1 0.0001425 0.1665184 0.8330829
11 1 0.1671348 0.9999418 0.8331218
12 1 0.1664706 0.1668113 0.6665671
13 1 0.0000911 0.3330129 0.9999500
14 1 0.0001738 0.5001086 0.1663872
15 1 0.1665136 0.3338871 0.1667978
16 1 0.1667443 0.4997208 0.9998460
17 1 0.9998396 0.3330066 0.3331685
18 1 0.9995660 0.5002844 0.4999012
19 1 0.1668123 0.3333536 0.5003000
20 1 0.1664288 0.5001616 0.3334138
21 1 0.0005861 0.3334390 0.6666567
22 1 0.9998753 0.5002778 0.8332997
23 1 0.1666908 0.3336172 0.8331171
24 1 0.1670202 0.5007666 0.6669432
25 1 0.9995198 0.6666694 0.0002143
26 1 0.0000022 0.8336420 0.1667226
27 1 0.1665032 0.6662748 0.1665464
28 1 0.1658901 0.8335030 0.0001347
29 1 0.9999926 0.6667978 0.3337548
30 1 0.0001725 0.8331534 0.5000892
31 1 0.1669297 0.6667150 0.5002710
32 1 0.1666525 0.8332373 0.3334597
33 1 0.9999297 0.6669639 0.6668678
34 1 0.0001101 0.8333716 0.8336614
35 1 0.1667757 0.6668282 0.8332264
36 1 0.1666068 0.8336822 0.6666479
37 1 0.3332878 0.9999714 0.9997978
38 1 0.3334812 0.1665596 0.1670866
39 1 0.5000413 0.0000425 0.1667293
40 1 0.5000792 0.1667799 0.9998227
41 1 0.3330694 0.0000674 0.3327638
42 1 0.3333145 0.1668883 0.5000231
43 1 0.5001953 0.0000740 0.5004080
44 1 0.4999003 0.1664339 0.3332957
45 1 0.3334113 0.0000815 0.6668771
46 1 0.3329606 0.1668844 0.8336089
47 1 0.4995987 0.0002916 0.8335176
48 1 0.5002700 0.1665713 0.6667005
49 1 0.3333908 0.3329993 0.9999103
50 1 0.3336275 0.5000583 0.1667079
51 1 0.5001065 0.3330635 0.1667986
52 1 0.5001941 0.5003550 0.0003064
53 1 0.3329100 0.3330205 0.3334910
54 1 0.3334244 0.5005587 0.4998163
55 1 0.5003627 0.3333223 0.5006634
56 1 0.4997584 0.5003871 0.3335052
57 1 0.3328953 0.3333293 0.6669925
58 1 0.3337551 0.5001737 0.8331370
59 1 0.5000573 0.3335449 0.8331344
60 1 0.4998075 0.4998664 0.6667297
61 1 0.3333904 0.6665815 0.0002485
62 1 0.3333305 0.8329930 0.1662852
63 1 0.5002974 0.6666237 0.1667541
64 1 0.5000878 0.8332688 0.9996078
65 1 0.3335131 0.6670451 0.3331475
66 1 0.3329892 0.8329685 0.5001734
67 1 0.5002122 0.6666409 0.5001424
68 1 0.5001208 0.8333190 0.3332120
69 1 0.3333111 0.6665993 0.6668253
70 1 0.3337585 0.8332131 0.8334295
71 1 0.4995445 0.6668510 0.8337439
72 1 0.5000774 0.8335623 0.6672940
73 1 0.6667822 0.0003608 0.0002596
74 1 0.6667112 0.1664853 0.1667269
75 1 0.8331674 0.0000521 0.1672625
76 1 0.8335382 0.1668297 0.0000490
77 1 0.6668536 0.9995340 0.3328312
78 1 0.6665757 0.1663917 0.5000907
79 1 0.8337183 0.0004778 0.4999036
80 1 0.8333150 0.1669034 0.3337072
81 1 0.6665389 0.9999062 0.6666425
82 1 0.6664234 0.1667538 0.8329826
83 1 0.8334486 0.9999692 0.8334903
84 1 0.8333260 0.1665614 0.6664456
85 1 0.6666664 0.3331691 0.0004173
86 1 0.6666370 0.4999165 0.1668178
87 1 0.8336570 0.3330805 0.1669743
88 1 0.8334473 0.4997969 0.0000301
89 1 0.6666209 0.3328094 0.3331044
90 1 0.6667091 0.5001896 0.4997561
91 1 0.8335250 0.3337062 0.5000678
92 1 0.8335610 0.4999547 0.3333790
93 1 0.6666741 0.3336351 0.6666541
94 1 0.6673241 0.5002785 0.8331404
95 1 0.8333292 0.3334834 0.8338645
96 1 0.8328930 0.5000201 0.6667116
97 1 0.6665289 0.6664926 0.0001328
98 1 0.6663402 0.8330424 0.1664273
99 1 0.8333019 0.6667125 0.1668521
100 1 0.8329661 0.8334541 0.0002078
101 1 0.6668365 0.6668096 0.3335500
102 1 0.6668253 0.8331799 0.4996252
103 1 0.8338182 0.6665296 0.4999035
104 1 0.8330410 0.8330620 0.3337789
105 1 0.6663913 0.6667944 0.6665834
106 1 0.6664911 0.8328340 0.8331290
107 1 0.8333073 0.6667846 0.8331275
108 1 0.8333826 0.8329246 0.6665137
ITEM: TIMESTEP
4
ITEM: NUMBER OF ATOMS
108
ITEM: BOX BOUNDS pp pp pp
-8.196006 8.196006
-8.196006 8.196006
-8.196006 8.196006
ITEM: ATOMS id type xs ys zs
1 1 0.0000601 0.9999947 0.0001442
2 1 0.9995450 0.1668160 0.1668498
3 1 0.1665966 0.9995734 0.1668297
4 1 0.1668481 0.1666872 0.0000345
5 1 0.9995113 0.0004788 0.3338809
6 1 0.9999656 0.1666600 0.4999712
7 1 0.1662418 0.9993853 0.5004772
8 1 0.1663695 0.1663140 0.3337585
9 1 0.0003741 0.0000243 0.6669648
10 1 0.0002638 0.1667117 0.8334680
11 1 0.1667054 0.0000046 0.8337501
12 1 0.1668697 0.1667463 0.6664675
13 1 0.9997184 0.3334453 0.0002200
14 1 0.0005425 0.5002702 0.1661304
15 1 0.1663641 0.3333521 0.1665050
16 1 0.1669555 0.5004024 0.0004585
17 1 0.0002212 0.3329167 0.3333028
18 1 0.0002585 0.5004287 0.5000132
19 1 0.1661342 0.3332451 0.4998110
20 1 0.1666085 0.5003041 0.3333094
21 1 0.9998901 0.3336705 0.6667718
22 1 0.0005061 0.4997905 0.8331799
23 1 0.1671825 0.3333126 0.8337402
24 1 0.1667114 0.4996080 0.6667931
25 1 0.0003330 0.6664411 0.9997107
26 1 0.0003050 0.8332390 0.1665601
27 1 0.1672225 0.6665739 0.1667318
28 1 0.1670397 0.8334177 0.0000820
29 1 0.9994453 0.6666674 0.3328800
30 1 0.9997907 0.8333441 0.4998958
31 1 0.1667620 0.6667699 0.5003907
32 1 0.1669895 0.8334937 0.3332376
33 1 0.0000517 0.6660852 0.6670043
34 1 0.0001716 0.8327780 0.8332740
35 1 0.1666952 0.6671379 0.8334708
36 1 0.1666483 0.8329638 0.6667469
37 1 0.3330028 0.0002526 0.9997972
38 1 0.3331171 0.1665891 0.1666069
39 1 0.5001342 0.0003695 0.1669043
40 1 0.4998869 0.1666695 0.9997061
41 1 0.3334805 0.9995450 0.3333677
42 1 0.3331765 0.1665298 0.4999094
43 1 0.4998848 0.0001916 0.5004017
44 1 0.5000548 0.1666614 0.3335346
45 1 0.3334541 0.0000650 0.6663496
46 1 0.3332119 0.1664750 0.8327702
47 1 0.5003651 0.0000744 0.8333228
48 1 0.5000639 0.1665297 0.6668403
49 1 0.3331260 0.3329192 0.9996633
50 1 0.3329331 0.5000554 0.1669727
51 1 0.5003821 0.3335250 0.1664085
52 1 0.5002691 0.4999163 0.9997682
53 1 0.3333486 0.3337789 0.3334882
54 1 0.3330490 0.4996739 0.5001617
55 1 0.4999317 0.3332674 0.4998453
56 1 0.4997985 0.4995687 0.3333462
57 1 0.3330241 0.3333350 0.6663821
58 1 0.3332362 0.5001806 0.8333900
59 1 0.5003557 0.3332009 0.8336360
60 1 0.5001990 0.5001215 0.6662776
61 1 0.3330433 0.6663704 0.9995898
62 1 0.3337299 0.8335706 0.1667695
63 1 0.4998492 0.6669003 0.1664728
64 1 0.4998116 0.8329777 0.0000258
65 1 0.3330789 0.6665791 0.3339647
66 1 0.3337553 0.8331225 0.5001585
67 1 0.4998355 0.6665896 0.5003964
68 1 0.5000013 0.8333649 0.3338078
69 1 0.3329754 0.6666635 0.6668280
70 1 0.3332880 0.8335406 0.8334415
71 1 0.4999066 0.6669538 0.8332862
72 1 0.5000318 0.8329943 0.6665187
73 1 0.6663238 0.0001199 0.0001077
74 1 0.6666127 0.1665756 0.1666684
75 1 0.8333017 0.0006040 0.1664091
76 1 0.8333699 0.1671897 0.9997860
77 1 0.6665136 0.0001320 0.3333603
78 1 0.6665557 0.1663963 0.4998296
79 1 0.8329878 0.0000354 0.4998683
80 1 0.8333617 0.1668778 0.3331453
81 1 0.6668435 0.0001471 0.6664612
82 1 0.6666209 0.1667688 0.8333274
83 1 0.8334042 0.9998164 0.8331808
84 1 0.8337766 0.1670016 0.6665854
85 1 0.6668196 0.3330145 0.0003000
86 1 0.6666345 0.4998252 0.1662145
87 1 0.8336408 0.3331454 0.1668247
88 1 0.8332811 0.5001856 0.9998794
89 1 0.6667193 0.3332382 0.3332939
90 1 0.6665159 0.4999752 0.4997816
91 1 0.8332222 0.3334652 0.5001960
92 1 0.8333060 0.4997238 0.3335147
93 1 0.6661906 0.3333444 0.6664981
94 1 0.6665583 0.5001506 0.8333528
95 1 0.8334126 0.3335073 0.8333491
96 1 0.8330461 0.5002403 0.6668754
97 1 0.6668270 0.6664601 0.9997844
98 1 0.6671579 0.8335342 0.1666924
99 1 0.8327812 0.6669416 0.1663581
100 1 0.8337736 0.8330773 0.9997542
101 1 0.6665254 0.6666062 0.3336384
102 1 0.6669354 0.8334580 0.5006307
103 1 0.8328309 0.6664112 0.4999228
104 1 0.8334152 0.8334528 0.3336070
105 1 0.6665542 0.6669141 0.6666555
106 1 0.6663489 0.8334408 0.8331902
107 1 0.8329732 0.6670678 0.8329995
108 1 0.8334448 0.8331979 0.6664627
