ITEM: TIMESTEP
1
ITEM: NUMBER OF ATOMS
54
ITEM: BOX BOUNDS pp pp pp
-4.304955 4.304955
-4.304955 4.304955
-4.304955 4.304955
ITEM: ATOMS id type xs ys zs
1 1 0.0005648 0.9994551 0.0007616
2 1 0.1670170 0.1668681 0.1663264
3 1 0.9995785 0.0000416 0.3327673
4 1 0.1671228 0.1671136 0.4994864
5 1 0.0001883 0.0000127 0.6675923
6 1 0.1659233 0.1665904 0.8338807
7 1 0.9994024 0.3335445 0.0004643
8 1 0.1670516 0.5001764 0.1668582
9 1 0.0005769 0.3337739 0.3332288
10 1 0.1674179 0.4999951 0.4983479
11 1 0.0008228 0.3328490 0.6665737
12 1 0.1667890 0.5005485 0.8335369
13 1 0.9998823 0.6661138 0.9996971
14 1 0.1672211 0.8337517 0.1658894
15 1 0.9995161 0.6662496 0.3340411
16 1 0.1679532 0.8335546 0.5002411
17 1 0.9992851 0.6665443 0.6666674
18 1 0.1664526 0.8342870 0.8330778
19 1 0.3333592 0.0001234 0.9998462
20 1 0.4996296 0.1678264 0.1664816
21 1 0.3335036 0.0003094 0.3331386
22 1 0.4997062 0.1663743 0.4990242
23 1 0.3337836 0.0000096 0.6657989
24 1 0.4999720 0.1672510 0.8332142
25 1 0.3340331 0.3328111 0.9991624
26 1 0.4992270 0.4999170 0.1661421
27 1 0.3336822 0.3344190 0.3327932
28 1 0.5006911 0.4997079 0.4995469
29 1 0.3328924 0.3327474 0.6655896
30 1 0.4994728 0.4996990 0.8341677
31 1 0.3343621 0.6664035 0.9996554
32 1 0.5006004 0.8328204 0.1670175
33 1 0.3338616 0.6666531 0.3336855
34 1 0.4992941 0.8333047 0.4996065
35 1 0.3335100 0.6665355 0.6671607
36 1 0.4999196 0.8322507 0.8329233
37 1 0.6672883 0.0004233 0.0001177
38 1 0.8342753 0.1675538 0.1676746
39 1 0.6660632 0.9996024 0.3336146
40 1 0.8332984 0.1668471 0.5003308
41 1 0.6667304 0.9996664 0.6666813
42 1 0.8325990 0.1662225 0.8328614
43 1 0.6664702 0.3339708 0.9994727
44 1 0.8330383 0.4999888 0.1667261
45 1 0.6672265 0.3331544 0.3328509
46 1 0.8331844 0.4995955 0.4993698
47 1 0.6661130 0.3337945 0.6656897
48 1 0.8331711 0.5000531 0.8334908
49 1 0.6660069 0.6670932 0.9994817
50 1 0.8338439 0.8333643 0.1665756
51 1 0.6667990 0.6665952 0.3342243
52 1 0.8333958 0.8334886 0.5007398
53 1 0.6670843 0.6666529 0.6676134
54 1 0.8327196 0.8338712 0.8330426
ITEM: TIMESTEP
2
ITEM: NUMBER OF ATOMS
54
ITEM: BOX BOUNDS pp pp pp
-4.304955 4.304955
-4.304955 4.304955
-4.304955 4.304955
ITEM: ATOMS id type xs ys zs
1 1 0.0002868 0.9989467 0.0007286
2 1 0.1667406 0.1670743 0.1668209
3 1 0.0007253 0.0006784 0.3328520
4 1 0.1665588 0.1670167 0.5006003
5 1 0.9994017 0.9994012 0.6665201
6 1 0.1667952 0.1663445 0.8336266
7 1 0.9993521 0.3319867 0.9998956
8 1 0.1662465 0.4987237 0.1669239
9 1 0.0009085 0.3336915 0.3336936
10 1 0.1657586 0.4995326 0.4996147
11 1 0.9992221 0.3329812 0.6667022
12 1 0.1665228 0.4990990 0.8333811
13 1 0.0004051 0.6656800 0.0001006
14 1 0.1670438 0.8337286 0.1668359
15 1 0.9999916 0.6667328 0.3343015
16 1 0.1666608 0.8341082 0.5002751
17 1 0.0003870 0.6660141 0.6666057
18 1 0.1664217 0.8332492 0.8329962
19 1 0.3338017 0.0000537 0.0002347
20 1 0.4994261 0.1659465 0.1669352
21 1 0.3336926 0.0003310 0.3322884
22 1 0.5008921 0.1670085 0.5001623
23 1 0.3328476 0.9992161 0.6672788
24 1 0.4996285 0.1670110 0.8335342
25 1 0.3330513 0.3330649 0.9992036
26 1 0.4991870 0.5005274 0.1667248
27 1 0.3323186 0.3331520 0.3328592
28 1 0.4997564 0.4995638 0.5000413
29 1 0.3333843 0.3336697 0.6662804
30 1 0.4998045 0.4993548 0.8325316
31 1 0.3328526 0.6664091 0.0001822
32 1 0.5004540 0.8328653 0.1671630
33 1 0.3330460 0.6667697 0.3330193
34 1 0.4992760 0.8329956 0.5000206
35 1 0.3330109 0.6657538 0.6664717
36 1 0.4993084 0.8345066 0.8330378
37 1 0.6668108 0.0000521 0.9996103
38 1 0.8339878 0.1671731 0.1669194
39 1 0.6663022 0.0004565 0.3330284
40 1 0.8334384 0.1664617 0.5001914
41 1 0.6660134 0.0002244 0.6663246
42 1 0.8340086 0.1662595 0.8333209
43 1 0.6673780 0.3331225 0.9993469
44 1 0.8330428 0.4995633 0.1663993
45 1 0.6661635 0.3323462 0.3325467
46 1 0.8330944 0.4994041 0.4991435
47 1 0.6661247 0.3331948 0.6665858
48 1 0.8328815 0.5001645 0.8338941
49 1 0.6667542 0.6656934 0.0001549
50 1 0.8333137 0.8332321 0.1658533
51 1 0.6666726 0.6670189 0.3330424
52 1 0.8328821 0.8327753 0.4999130
53 1 0.6667196 0.6671092 0.6663485
54 1 0.8336049 0.8324302 0.8332970
ITEM: TIMESTEP
3
ITEM: NUMBER OF ATOMS
54
ITEM: BOX BOUNDS pp pp pp
-4.304955 4.304955
-4.304955 4.304955
-4.304955 4.304955
ITEM: ATOMS id type xs ys zs
1 1 0.9990325 0.9999873 0.0001159
2 1 0.1672300 0.1677434 0.1656834
3 1 0.9997675 0.0004073 0.3336879
4 1 0.1666738 0.1666554 0.4992455
5 1 0.9997464 0.9993660 0.6663307
6 1 0.1664827 0.1662980 0.8334760
7 1 0.9993684 0.3334816 0.9996723
8 1 0.1657903 0.5000635 0.1670360
9 1 0.0004437 0.3325811 0.3330408
10 1 0.1663772 0.5004860 0.5005928
11 1 0.9998375 0.3337962 0.6666552
12 1 0.1659474 0.5003437 0.8337749
13 1 0.0006139 0.6662174 0.9998988
14 1 0.1663284 0.8331374 0.1675295
15 1 0.9997931 0.6672227 0.3331547
16 1 0.1672949 0.8337954 0.4993520
17 1 0.0002662 0.6664256 0.6665301
18 1 0.1673043 0.8339601 0.8336206
19 1 0.3337902 0.9997843 0.0006681
20 1 0.4996759 0.1663213 0.1670323
21 1 0.3333545 0.0004333 0.3329761
22 1 0.5003857 0.1674523 0.4999885
23 1 0.3340053 0.0000385 0.6666166
24 1 0.5006505 0.1662660 0.8330409
25 1 0.3339706 0.3334322 0.0007454
26 1 0.4989856 0.4997866 0.1663261
27 1 0.3329818 0.3334269 0.3337375
28 1 0.5008963 0.5008606 0.5001611
29 1 0.3327529 0.3328719 0.6667236
30 1 0.4994274 0.4998119 0.8337490
31 1 0.3335588 0.6669200 0.0002514
32 1 0.5002972 0.8326602 0.1667860
33 1 0.3335957 0.6669599 0.3323230
34 1 0.4998136 0.8331954 0.5000961
35 1 0.3330566 0.6664102 0.6663779
36 1 0.4995229 0.8336443 0.8320824
37 1 0.6672053 0.9995178 0.9999131
38 1 0.8327616 0.1661398 0.1670373
39 1 0.6673473 0.0001653 0.3331950
40 1 0.8333128 0.1667087 0.5002052
41 1 0.6663843 0.0003662 0.6659671
42 1 0.8329673 0.1678264 0.8325794
43 1 0.6655997 0.3333216 0.0005729
44 1 0.8332808 0.5002410 0.1664990
45 1 0.6658611 0.3330062 0.3334499
46 1 0.8331278 0.4995890 0.5005446
47 1 0.6672169 0.3330250 0.6666500
48 1 0.8338161 0.4996310 0.8332081
49 1 0.6661065 0.6666790 0.9997285
50 1 0.8337555 0.8333058 0.1653066
51 1 0.6664693 0.6659511 0.3336866
52 1 0.8338588 0.8341701 0.4997009
53 1 0.6661541 0.6666233 0.6661241
54 1 0.8335681 0.8329933 0.8339032
ITEM: TIMESTEP
4
ITEM: NUMBER OF ATOMS
54
ITEM: BOX BOUNDS pp pp pp
-4.304955 4.304955
-4.304955 4.304955
-4.304955 4.304955
ITEM: ATOMS id type xs ys zs
1 1 0.9995445 0.0002783 0.0000895
2 1 0.1661214 0.1671296 0.1667150
3 1 0.9995674 0.0002987 0.3334215
4 1 0.1663310 0.1675923 0.4995432
5 1 0.9998937 0.0000391 0.6665988
6 1 0.1669694 0.1671047 0.8345881
7 1 0.0004641 0.3335466 0.0001430
8 1 0.1676148 0.4998259 0.1665774
9 1 0.0010051 0.3331908 0.3331094
10 1 0.1668354 0.4996417 0.5004511
11 1 0.9989183 0.3331605 0.6666456
12 1 0.1664229 0.4999965 0.8334182
13 1 0.9991959 0.6661018 0.0001300
14 1 0.1663592 0.8334686 0.1657947
15 1 0.0000571 0.6667741 0.3334676
16 1 0.1673676 0.8332047 0.5000459
17 1 0.0004922 0.6668954 0.6671943
18 1 0.1660090 0.8337365 0.8325988
19 1 0.3331705 0.0006666 0.9992966
20 1 0.4994751 0.1660569 0.1665289
21 1 0.3338338 0.0011796 0.3338680
22 1 0.5004658 0.1663980 0.4993246
23 1 0.3334793 0.9993423 0.6660074
24 1 0.5000253 0.1664599 0.8331792
25 1 0.3330662 0.3329817 0.9997698
26 1 0.4992123 0.4994500 0.1660088
27 1 0.3333452 0.3336049 0.3345824
28 1 0.4998366 0.4998000 0.4995667
29 1 0.3338714 0.3335282 0.6674672
30 1 0.4999845 0.4996189 0.8333522
31 1 0.3332743 0.6671863 0.9995668
32 1 0.4992506 0.8335541 0.1663830
33 1 0.3330651 0.6663660 0.3326841
34 1 0.5000913 0.8348988 0.5001499
35 1 0.3335956 0.6668085 0.6664344
36 1 0.5000786 0.8333203 0.8338022
37 1 0.6675417 0.0004832 0.0005650
38 1 0.8333464 0.1677873 0.1668995
39 1 0.6660306 0.0001784 0.3327689
40 1 0.8335312 0.1669453 0.5004616
41 1 0.6666033 0.0004780 0.6664455
42 1 0.8330527 0.1668925 0.8331860
43 1 0.6664004 0.3334171 0.9997357
44 1 0.8332314 0.5001016 0.1668061
45 1 0.6669405 0.3330660 0.3341884
46 1 0.8330854 0.4999656 0.4996008
47 1 0.6672993 0.3333055 0.6660322
48 1 0.8332017 0.4998866 0.8325686
49 1 0.6666456 0.6660000 0.0003716
50 1 0.8333354 0.8337231 0.1669739
51 1 0.6669129 0.6669275 0.3327120
52 1 0.8328041 0.8330352 0.4998120
53 1 0.6659923 0.6670962 0.6668455
54 1 0.8335042 0.8332477 0.8334841
ITEM: TIMESTEP
5
ITEM: NUMBER OF ATOMS
54
ITEM: BOX BOUNDS pp pp pp
-4.304955 4.304955
-4.304955 4.304955
-4.304955 4.304955
ITEM: ATOMS id type xs ys zs
1 1 0.9989752 0.9996553 0.9989119
2 1 0.1670427 0.1670491 0.1671360
3 1 0.9987321 0.0004100 0.3335024
4 1 0.1667191 0.1659979 0.5000251
5 1 0.0004427 0.0000738 0.6662721
6 1 0.1666355 0.1664037 0.8325669
7 1 0.9996718 0.3331758 0.0001734
8 1 0.1662636 0.5007275 0.1668253
9 1 0.9999446 0.3327541 0.3336117
10 1 0.1663902 0.5007216 0.5001187
11 1 0.0006349 0.3332625 0.6664448
12 1 0.1674195 0.5005434 0.8336777
13 1 0.9998585 0.6677217 0.9995124
14 1 0.1666064 0.8331839 0.1661331
15 1 0.9998226 0.6668339 0.3328505
16 1 0.1654510 0.8329046 0.4992167
17 1 0.9999026 0.6660741 0.6664474
18 1 0.1668700 0.8335407 0.8324170
19 1 0.3334235 0.9995007 0.9998061
20 1 0.4995631 0.1675423 0.1661270
21 1 0.3329605 0.0003836 0.3330862
22 1 0.4999170 0.1672469 0.4990593
23 1 0.3337861 0.9988364 0.6673932
24 1 0.4991668 0.1663457 0.8317838
25 1 0.3330521 0.3337489 0.9995021
26 1 0.5004948 0.4994374 0.1678298
27 1 0.3332538 0.3330087 0.3324613
28 1 0.5001979 0.4998897 0.5003714
29 1 0.3328106 0.3328275 0.6668840
30 1 0.4999487 0.5000664 0.8325637
31 1 0.3334225 0.6664632 0.9995333
32 1 0.5001523 0.8330954 0.1673811
33 1 0.3339291 0.6670185 0.3337204
34 1 0.4999035 0.8332605 0.4995156
35 1 0.3334291 0.6668557 0.6676872
36 1 0.4996853 0.8337791 0.8326996
37 1 0.6663539 0.0003298 0.0006813
38 1 0.8347360 0.1665543 0.1669586
39 1 0.6667165 0.9998525 0.3335964
40 1 0.8335444 0.1665757 0.5002905
41 1 0.6660869 0.0000521 0.6657661
42 1 0.8336315 0.1652762 0.8335036
43 1 0.6664365 0.3334348 0.0000316
44 1 0.8325156 0.5003059 0.1674564
45 1 0.6659420 0.3336034 0.3326562
46 1 0.8323948 0.4996157 0.4996132
47 1 0.6662374 0.3330207 0.6668998
48 1 0.8339695 0.4990562 0.8326701
49 1 0.6664611 0.6669727 0.9996825
50 1 0.8332651 0.8338654 0.1660606
51 1 0.6666800 0.6661588 0.3325473
52 1 0.8334578 0.8329612 0.5003203
53 1 0.6661863 0.6665816 0.6674144
54 1 0.8322478 0.8333496 0.8326570
ITEM: TIMESTEP
6
ITEM: NUMBER OF ATOMS
54
ITEM: BOX BOUNDS pp pp pp
-4.304955 4.304955
-4.304955 4.304955
-4.304955 4.304955
ITEM: ATOMS id type xs ys zs
1 1 0.9995987 0.0002191 0.0003778
2 1 0.1661901 0.1664888 0.1665405
3 1 0.0007499 0.9996726 0.3331646
4 1 0.1660994 0.1670656 0.5005780
5 1 0.0001489 0.0003152 0.6662287
6 1 0.1667317 0.1669137 0.8331767
7 1 0.0000972 0.3338937 0.9998018
8 1 0.1671639 0.5004628 0.1666282
9 1 0.9993426 0.3343323 0.3328689
10 1 0.1667818 0.4998905 0.5003884
11 1 0.9999342 0.3328055 0.6664064
12 1 0.1663565 0.4999723 0.8332331
13 1 0.9996934 0.6662794 0.0001108
14 1 0.1658219 0.8334891 0.1669020
15 1 0.0004120 0.6674326 0.3329704
16 1 0.1663880 0.8331812 0.4998719
17 1 0.0006343 0.6664029 0.6667993
18 1 0.1657419 0.8333710 0.8326544
19 1 0.3337556 0.9988195 0.9998551
20 1 0.5000398 0.1656473 0.1660803
21 1 0.3331534 0.0000040 0.3340044
22 1 0.5002997 0.1667629 0.4991372
23 1 0.3329215 0.0001869 0.6668740
24 1 0.4998835 0.1667262 0.8329906
25 1 0.3330701 0.3333508 0.0001899
26 1 0.4995572 0.4992886 0.1660695
27 1 0.3329643 0.3334156 0.3333918
28 1 0.4990621 0.5004130 0.5004437
29 1 0.3332785 0.3342059 0.6656690
30 1 0.4991871 0.4998518 0.8331754
31 1 0.3318830 0.6662826 0.0001395
32 1 0.4997097 0.8335980 0.1667989
33 1 0.3328572 0.6674683 0.3329462
34 1 0.5007514 0.8340327 0.5008422
35 1 0.3340726 0.6661692 0.6671292
36 1 0.5002707 0.8332105 0.8331702
37 1 0.6667421 0.0000034 0.0001116
38 1 0.8328592 0.1668584 0.1668779
39 1 0.6668669 0.9989943 0.3341347
40 1 0.8335494 0.1666920 0.4999206
41 1 0.6682290 0.0002994 0.6665970
42 1 0.8331592 0.1665014 0.8328800
43 1 0.6658629 0.3331821 0.0004469
44 1 0.8344941 0.4997717 0.1664534
45 1 0.6672622 0.3330046 0.3327994
46 1 0.8329071 0.4997341 0.4998010
47 1 0.6674837 0.3327634 0.6662108
48 1 0.8334510 0.4995157 0.8328856
49 1 0.6665198 0.6666848 0.0002426
50 1 0.8331998 0.8331534 0.1658081
51 1 0.6663870 0.6664465 0.3326666
52 1 0.8332918 0.8335324 0.5002444
53 1 0.6663764 0.6662086 0.6668399
54 1 0.8335151 0.8332182 0.8327852
ITEM: TIMESTEP
7
ITEM: NUMBER OF ATOMS
54
ITEM: BOX BOUNDS pp pp pp
-4.304955 4.304955
-4.304955 4.304955
-4.304955 4.304955
ITEM: ATOMS id type xs ys zs
1 1 0.9993373 0.0004948 0.0007738
2 1 0.1675381 0.1658353 0.1659588
3 1 0.9999502 0.9998715 0.3332995
4 1 0.1672042 0.1666773 0.4996983
5 1 0.9997577 0.0004137 0.6664753
6 1 0.1665812 0.1663795 0.8324935
7 1 0.9996085 0.3340538 0.0006964
8 1 0.1667609 0.5002095 0.1658115
9 1 0.9997939 0.3326058 0.3327714
10 1 0.1652504 0.5001244 0.4993915
11 1 0.0005596 0.3335502 0.6663765
12 1 0.1661135 0.4989909 0.8333956
13 1 0.9994211 0.6674595 0.9993068
14 1 0.1671991 0.8336682 0.1669294
15 1 0.0002320 0.6666083 0.3336715
16 1 0.1674112 0.8337278 0.4998729
17 1 0.9998327 0.6663245 0.6663074
18 1 0.1661365 0.8342144 0.8330639
19 1 0.3336305 0.9997622 0.9988146
20 1 0.5004374 0.1661147 0.1670453
21 1 0.3332764 0.9996475 0.3336078
22 1 0.4996547 0.1669060 0.4991164
23 1 0.3337410 0.9997434 0.6666684
24 1 0.4992223 0.1673995 0.8335622
25 1 0.3340399 0.3342305 0.9998850
26 1 0.4997518 0.4995117 0.1665770
27 1 0.3329938 0.3325759 0.3332338
28 1 0.4995374 0.5004045 0.5002880
29 1 0.3329610 0.3336859 0.6670185
30 1 0.5005311 0.4996570 0.8327276
31 1 0.3333901 0.6672569 0.0013968
32 1 0.5001554 0.8338087 0.1659607
33 1 0.3342045 0.6671232 0.3330216
34 1 0.5004457 0.8335551 0.4994896
35 1 0.3332673 0.6659335 0.6665997
36 1 0.4995493 0.8331367 0.8330391
37 1 0.6657258 0.0001618 0.9997039
38 1 0.8331356 0.1662307 0.1662894
39 1 0.6671252 0.9998234 0.3336585
40 1 0.8325269 0.1671685 0.5001244
41 1 0.6660263 0.0004527 0.6665759
42 1 0.8334521 0.1659772 0.8343798
43 1 0.6674174 0.3325315 0.0003779
44 1 0.8333433 0.4991528 0.1667863
45 1 0.6676772 0.3332096 0.3324847
46 1 0.8331465 0.5006126 0.5001081
47 1 0.6674772 0.3338658 0.6665309
48 1 0.8331303 0.5002097 0.8332387
49 1 0.6669953 0.6669228 0.9999459
50 1 0.8331056 0.8330923 0.1667157
51 1 0.6671314 0.6665627 0.3335681
52 1 0.8323731 0.8332556 0.5000954
53 1 0.6667717 0.6671252 0.6665464
54 1 0.8337338 0.8333156 0.8341732
ITEM: TIMESTEP
8
ITEM: NUMBER OF ATOMS
54
ITEM: BOX BOUNDS pp pp pp
-4.304955 4.304955
-4.304955 4.304955
-4.304955 4.304955
ITEM: ATOMS id type xs ys zs
1 1 0.0006122 0.9992010 0.0009241
2 1 0.1664846 0.1676414 0.1670152
3 1 0.0004859 0.9994451 0.3335881
4 1 0.1666748 0.1662255 0.5000728
5 1 0.9998011 0.9990728 0.6671977
6 1 0.1660711 0.1665239 0.8334958
7 1 0.0001054 0.3334097 0.0000843
8 1 0.1670837 0.4999189 0.1658157
9 1 0.0004108 0.3336253 0.3335725
10 1 0.1653427 0.5001654 0.5003174
11 1 0.0006494 0.3336404 0.6670174
12 1 0.1667501 0.5012021 0.8335981
13 1 0.0005630 0.6661280 0.0004123
14 1 0.1681645 0.8328662 0.1669126
15 1 0.9997425 0.6675654 0.3328651
16 1 0.1666039 0.8333551 0.4996840
17 1 0.0007483 0.6666812 0.6668843
18 1 0.1667921 0.8332281 0.8335530
19 1 0.3342119 0.9996942 0.9989619
20 1 0.4999679 0.1668047 0.1669679
21 1 0.3328486 0.9998774 0.3330777
22 1 0.5009038 0.1674639 0.4993675
23 1 0.3329870 0.0002664 0.6658682
24 1 0.4996625 0.1665077 0.8328730
25 1 0.3330729 0.3345125 0.9998577
26 1 0.4999861 0.4989063 0.1666530
27 1 0.3325291 0.3332468 0.3334469
28 1 0.5003852 0.5002994 0.4995513
29 1 0.3331722 0.3340731 0.6660530
30 1 0.4998461 0.5013706 0.8330337
31 1 0.3333934 0.6653132 0.0001474
32 1 0.4996298 0.8342875 0.1665790
33 1 0.3336728 0.6661628 0.3338874
34 1 0.4997051 0.8337154 0.5001082
35 1 0.3337253 0.6672625 0.6683341
36 1 0.4995745 0.8333440 0.8324514
37 1 0.6666576 0.0002151 0.0007782
38 1 0.8335093 0.1670507 0.1666526
39 1 0.6653055 0.0001885 0.3337961
40 1 0.8334581 0.1668102 0.4985324
41 1 0.6665986 0.9992383 0.6667842
42 1 0.8331645 0.1669785 0.8330355
43 1 0.6653977 0.3331162 0.0003876
44 1 0.8332528 0.5001106 0.1665374
45 1 0.6678859 0.3327413 0.3334299
46 1 0.8328516 0.4994834 0.4997760
47 1 0.6661762 0.3334571 0.6665295
48 1 0.8334043 0.5012471 0.8335437
49 1 0.6662513 0.6666219 0.9996401
50 1 0.8340586 0.8331523 0.1678873
51 1 0.6668106 0.6669021 0.3333567
52 1 0.8330692 0.8333504 0.4996060
53 1 0.6663426 0.6665990 0.6668273
54 1 0.8330843 0.8343090 0.8331260
ITEM: TIMESTEP
9
ITEM: NUMBER OF ATOMS
54
ITEM: BOX BOUNDS pp pp pp
-4.304955 4.304955
-4.304955 4.304955
-4.304955 4.304955
ITEM: ATOMS id type xs ys zs
1 1 0.0002255 0.0000554 0.9988084
2 1 0.1671315 0.1667779 0.1670651
3 1 0.9988790 0.9999305 0.3323976
4 1 0.1674172 0.1664885 0.4988136
5 1 0.0002435 0.0007651 0.6662533
6 1 0.1668263 0.1667068 0.8338038
7 1 0.0001355 0.3341250 0.9998461
8 1 0.1682157 0.5006373 0.1657051
9 1 0.9995582 0.3338141 0.3329397
10 1 0.1676590 0.5009747 0.4993141
11 1 0.0012381 0.3322272 0.6666704
12 1 0.1663662 0.5006307 0.8331620
13 1 0.0004716 0.6675109 0.9999016
14 1 0.1656376 0.8336169 0.1670334
15 1 0.0001205 0.6673158 0.3317605
16 1 0.1673390 0.8333032 0.4993074
17 1 0.0001502 0.6660252 0.6665267
18 1 0.1663929 0.8335104 0.8325541
19 1 0.3335942 0.9996033 0.0002414
20 1 0.5012060 0.1661990 0.1668381
21 1 0.3332624 0.9995066 0.3327995
22 1 0.5004969 0.1669939 0.4991493
23 1 0.3336550 0.0006224 0.6667474
24 1 0.4997578 0.1666500 0.8340322
25 1 0.3341017 0.3334804 0.0000966
26 1 0.4995331 0.4983948 0.1667557
27 1 0.3331089 0.3334151 0.3336769
28 1 0.5000362 0.4996711 0.4996445
29 1 0.3330188 0.3333925 0.6671477
30 1 0.5009247 0.5007219 0.8318469
31 1 0.3339960 0.6675086 0.0003362
32 1 0.5005311 0.8336458 0.1675819
33 1 0.3343266 0.6660198 0.3327653
34 1 0.5001014 0.8335370 0.4998824
35 1 0.3343935 0.6674414 0.6660132
36 1 0.5008091 0.8343152 0.8334835
37 1 0.6667345 0.9997484 0.9995733
38 1 0.8338982 0.1676049 0.1666662
39 1 0.6668504 0.9999700 0.3335473
40 1 0.8334586 0.1663690 0.5001946
41 1 0.6664124 0.9993146 0.6666829
42 1 0.8335681 0.1653492 0.8333371
43 1 0.6668107 0.3338779 0.9995060
44 1 0.8327187 0.5002425 0.1669456
45 1 0.6671287 0.3330688 0.3337536
46 1 0.8335746 0.4997336 0.5001888
47 1 0.6670320 0.3328313 0.6673016
48 1 0.8331447 0.5002194 0.8329046
49 1 0.6663721 0.6661455 0.9999655
50 1 0.8342067 0.8335844 0.1661234
51 1 0.6676649 0.6660914 0.3331284
52 1 0.8330507 0.8330934 0.4994536
53 1 0.6661964 0.6663592 0.6672112
54 1 0.8326983 0.8328640 0.8334429
ITEM: TIMESTEP
10
ITEM: NUMBER OF ATOMS
54
ITEM: BOX BOUNDS pp pp pp
-4.304955 4.304955
-4.304955 4.304955
-4.304955 4.304955
ITEM: ATOMS id type xs ys zs
1 1 0.9994400 0.0008275 0.0006781
2 1 0.1664178 0.1666614 0.1662878
3 1 0.0004349 0.0005305 0.3334477
4 1 0.1672296 0.1673664 0.4999084
5 1 0.0002086 0.9995806 0.6676248
6 1 0.1666288 0.1668114 0.8339174
7 1 0.0000011 0.3330374 0.0002510
8 1 0.1665702 0.4997545 0.1662853
9 1 0.0003849 0.3332655 0.3340353
10 1 0.1672654 0.5002015 0.5001580
11 1 0.9998751 0.3333232 0.6657849
12 1 0.1675030 0.4998175 0.8346445
13 1 0.0003738 0.6662188 0.9997789
14 1 0.1668609 0.8328159 0.1660502
15 1 0.0002182 0.6660067 0.3339879
16 1 0.1668978 0.8322302 0.4999100
17 1 0.0001742 0.6670054 0.6670428
18 1 0.1665318 0.8335023 0.8331006
19 1 0.3337173 0.0007233 0.0011838
20 1 0.5000552 0.1669058 0.1659360
21 1 0.3332712 0.0002916 0.3337370
22 1 0.5003261 0.1667956 0.5002677
23 1 0.3328298 0.9999185 0.6672510
24 1 0.4995502 0.1673965 0.8339644
25 1 0.3336044 0.3332776 0.0005587
26 1 0.4996365 0.4997350 0.1666924
27 1 0.3327279 0.3333744 0.3333597
28 1 0.4992886 0.5000677 0.5008185
29 1 0.3324576 0.3339097 0.6665336
30 1 0.4998922 0.4999930 0.8327350
31 1 0.3328172 0.6658421 0.9997544
32 1 0.5000319 0.8323540 0.1671599
33 1 0.3332554 0.6669151 0.3341745
34 1 0.5005802 0.8331413 0.4999263
35 1 0.3327498 0.6667088 0.6664985
36 1 0.4994790 0.8331380 0.8341119
37 1 0.6660133 0.0006545 0.0002687
38 1 0.8327209 0.1660385 0.1667751
39 1 0.6668508 0.9998210 0.3335989
40 1 0.8330332 0.1658590 0.4998780
41 1 0.6675304 0.0002613 0.6667483
42 1 0.8335528 0.1664262 0.8334220
43 1 0.6669348 0.3331315 0.0003363
44 1 0.8330220 0.5003457 0.1674457
45 1 0.6671253 0.3329590 0.3340774
46 1 0.8331360 0.4999728 0.5003284
47 1 0.6665215 0.3333546 0.6675903
48 1 0.8335322 0.4997089 0.8327008
49 1 0.6671775 0.6665762 0.9999169
50 1 0.8335099 0.8325842 0.1663041
51 1 0.6665105 0.6662785 0.3342224
52 1 0.8327557 0.8332624 0.5003270
53 1 0.6665660 0.6667592 0.6665431
54 1 0.8332871 0.8340837 0.8333712
ITEM: TIMESTEP
11
ITEM: NUMBER OF ATOMS
54
ITEM: BOX BOUNDS pp pp pp
-4.304955 4.304955
-4.304955 4.304955
-4.304955 4.304955
ITEM: ATOMS id type xs ys zs
1 1 0.0002695 0.0008104 0.9990228
2 1 0.1670621 0.1659064 0.1670943
3 1 0.0000607 0.9998983 0.3336700
4 1 0.1663206 0.1673133 0.4999570
5 1 0.9998805 0.0002509 0.6664906
6 1 0.1667181 0.1670195 0.8336615
7 1 0.9998595 0.3343559 0.9989851
8 1 0.1668591 0.5005814 0.1667312
9 1 0.0003816 0.3325679 0.3333290
10 1 0.1665136 0.4997902 0.4998452
11 1 0.0003519 0.3334745 0.6668991
12 1 0.1663727 0.5004889 0.8334316
13 1 0.0000286 0.6672199 0.9998016
14 1 0.1649403 0.8326818 0.1659343
15 1 0.0003763 0.6665338 0.3333246
16 1 0.1661060 0.8339666 0.5001495
17 1 0.9992987 0.6670818 0.6661669
18 1 0.1675338 0.8336031 0.8348262
19 1 0.3331775 0.9995220 0.0003834
20 1 0.5000782 0.1665336 0.1662438
21 1 0.3336841 0.0006818 0.3331992
22 1 0.5001607 0.1660005 0.5004257
23 1 0.3328384 0.0001182 0.6677468
24 1 0.4988655 0.1666025 0.8320911
25 1 0.3320118 0.3325938 0.0000871
26 1 0.5006741 0.5000315 0.1666361
27 1 0.3339196 0.3334908 0.3334404
28 1 0.4995898 0.4998183 0.5004696
29 1 0.3331149 0.3334256 0.6667199
30 1 0.5002756 0.5006001 0.8335928
31 1 0.3346474 0.6675152 0.0003162
32 1 0.4998070 0.8327495 0.1661268
33 1 0.3327626 0.6680671 0.3336544
34 1 0.5012399 0.8335580 0.4998392
35 1 0.3325323 0.6676380 0.6674776
36 1 0.5007368 0.8331959 0.8334225
37 1 0.6673069 0.0003811 0.9998570
38 1 0.8325383 0.1673171 0.1668425
39 1 0.6675218 0.9999239 0.3333017
40 1 0.8339814 0.1669631 0.5002963
41 1 0.6668514 0.9997596 0.6655260
42 1 0.8331359 0.1674651 0.8328401
43 1 0.6661125 0.3328097 0.9998738
44 1 0.8331922 0.5001714 0.1666819
45 1 0.6669499 0.3339789 0.3334154
46 1 0.8330678 0.4995630 0.5004249
47 1 0.6665496 0.3322521 0.6662862
48 1 0.8335509 0.4990053 0.8333517
49 1 0.6669343 0.6664114 0.9996145
50 1 0.8330368 0.8338452 0.1667795
51 1 0.6665547 0.6675956 0.3336936
52 1 0.8333444 0.8327181 0.4992741
53 1 0.6661141 0.6666079 0.6669680
54 1 0.8325115 0.8328763 0.8337735
ITEM: TIMESTEP
12
ITEM: NUMBER OF ATOMS
54
ITEM: BOX BOUNDS pp pp pp
-4.304955 4.304955
-4.304955 4.304955
-4.304955 4.304955
ITEM: ATOMS id type xs ys zs
1 1 0.0003455 0.9993191 0.9995921
2 1 0.1673163 0.1664147 0.1659056
3 1 0.0003837 0.9998185 0.3335803
4 1 0.1673479 0.1671356 0.5000161
5 1 0.0005531 0.0001064 0.6655368
6 1 0.1668662 0.1668392 0.8337565
7 1 0.9990687 0.3334606 0.0004600
8 1 0.1679824 0.4998510 0.1668153
9 1 0.0003321 0.3328649 0.3334893
10 1 0.1669825 0.5000343 0.5000397
11 1 0.0002541 0.3323101 0.6662567
12 1 0.1665789 0.4997483 0.8332724
13 1 0.9997393 0.6659296 0.9995904
14 1 0.1661936 0.8330440 0.1663557
15 1 0.0002860 0.6663847 0.3336552
16 1 0.1657254 0.8339067 0.5001527
17 1 0.0002589 0.6666187 0.6672379
18 1 0.1668855 0.8324022 0.8333269
19 1 0.3328339 0.9997019 0.0006660
20 1 0.4998904 0.1666711 0.1661516
21 1 0.3342579 0.0002864 0.3339550
22 1 0.5003425 0.1662904 0.5011102
23 1 0.3331063 0.0000244 0.6666083
24 1 0.4996415 0.1674045 0.8325764
25 1 0.3330400 0.3337286 0.9999088
26 1 0.5007778 0.5006112 0.1665534
27 1 0.3327180 0.3333472 0.3326123
28 1 0.4999099 0.4991713 0.4996368
29 1 0.3330207 0.3319771 0.6661385
30 1 0.4996311 0.5014346 0.8329508
31 1 0.3340479 0.6668067 0.9996431
32 1 0.5004185 0.8331277 0.1664904
33 1 0.3339398 0.6657535 0.3335885
34 1 0.5003045 0.8339300 0.4990693
35 1 0.3338097 0.6661960 0.6657995
36 1 0.5004223 0.8336441 0.8332501
37 1 0.6670642 0.0000298 0.0000945
38 1 0.8322778 0.1667027 0.1664561
39 1 0.6660735 0.0001998 0.3331451
40 1 0.8331974 0.1676766 0.5002968
41 1 0.6675507 0.9999458 0.6668126
42 1 0.8337062 0.1668647 0.8343003
43 1 0.6664617 0.3339736 0.9993146
44 1 0.8330716 0.4996304 0.1662209
45 1 0.6670518 0.3337402 0.3328931
46 1 0.8335225 0.4997327 0.4995398
47 1 0.6660339 0.3322671 0.6664816
48 1 0.8340339 0.5003977 0.8342060
49 1 0.6669413 0.6662109 0.0001129
50 1 0.8330007 0.8335463 0.1674445
51 1 0.6663727 0.6672250 0.3332541
52 1 0.8335464 0.8331374 0.4999972
53 1 0.6659722 0.6668199 0.6674575
54 1 0.8334436 0.8336909 0.8336893
ITEM: TIMESTEP
13
ITEM: NUMBER OF ATOMS
54
ITEM: BOX BOUNDS pp pp pp
-4.304955 4.304955
-4.304955 4.304955
-4.304955 4.304955
ITEM: ATOMS id type xs ys zs
1 1 0.0002813 0.0008404 0.0006501
2 1 0.1670581 0.1672090 0.1663636
3 1 0.0001235 0.0011338 0.3331395
4 1 0.1672230 0.1659647 0.5007017
5 1 0.9998122 0.9997691 0.6658956
6 1 0.1666027 0.1674097 0.8328326
7 1 0.0007771 0.3331542 0.0007313
8 1 0.1673548 0.5020569 0.1664125
9 1 0.9997181 0.3331633 0.3332243
10 1 0.1668655 0.4995134 0.4993595
11 1 0.0004575 0.3330110 0.6660236
12 1 0.1664351 0.5002983 0.8339185
13 1 0.0005291 0.6672183 0.9995807
14 1 0.1668555 0.8338944 0.1662742
15 1 0.0000595 0.6661629 0.3339154
16 1 0.1672882 0.8333645 0.5007868
17 1 0.0002260 0.6672850 0.6670064
18 1 0.1662489 0.8329054 0.8331561
19 1 0.3322388 0.0001255 0.0001992
20 1 0.5001116 0.1668601 0.1669454
21 1 0.3339513 0.0009104 0.3335571
22 1 0.5000580 0.1668793 0.4994210
23 1 0.3327963 0.9998264 0.6667858
24 1 0.5004784 0.1675113 0.8335883
25 1 0.3342220 0.3322224 0.9994585
26 1 0.5008864 0.5005242 0.1663693
27 1 0.3337925 0.3332977 0.3338001
28 1 0.5002639 0.5002817 0.4993782
29 1 0.3333705 0.3326113 0.6663205
30 1 0.4995914 0.5000634 0.8340885
31 1 0.3331069 0.6670145 0.9993795
32 1 0.4994554 0.8329130 0.1668727
33 1 0.3335398 0.6669212 0.3336379
34 1 0.4999386 0.8341645 0.4989683
35 1 0.3331703 0.6661953 0.6669569
36 1 0.5004419 0.8335420 0.8325925
37 1 0.6667192 0.0001329 0.0005318
38 1 0.8330930 0.1667994 0.1657152
39 1 0.6660479 0.9993688 0.3331958
40 1 0.8327001 0.1670186 0.4998347
41 1 0.6665609 0.0000033 0.6666656
42 1 0.8324991 0.1667844 0.8343454
43 1 0.6668413 0.3336862 0.9995141
44 1 0.8327639 0.5000454 0.1679564
45 1 0.6661617 0.3322562 0.3336581
46 1 0.8331121 0.4996673 0.4990956
47 1 0.6673128 0.3339288 0.6674763
48 1 0.8324327 0.5001273 0.8338737
49 1 0.6679416 0.6668341 0.0006486
50 1 0.8341144 0.8336448 0.1670273
51 1 0.6668077 0.6658312 0.3336066
52 1 0.8328254 0.8330109 0.4998066
53 1 0.6665742 0.6663088 0.6663196
54 1 0.8334442 0.8328279 0.8331991
ITEM: TIMESTEP
14
ITEM: NUMBER OF ATOMS
54
ITEM: BOX BOUNDS pp pp pp
-4.304955 4.304955
-4.304955 4.304955
-4.304955 4.304955
ITEM: ATOMS id type xs ys zs
1 1 0.9995648 0.9995031 0.9997608
2 1 0.1675787 0.1673827 0.1666718
3 1 0.0002313 0.9992446 0.3334642
4 1 0.1671280 0.1665592 0.5001824
5 1 0.0004006 0.9996845 0.6658695
6 1 0.1662875 0.1661677 0.8322505
7 1 0.9998462 0.3326512 0.0004411
8 1 0.1669648 0.4997585 0.1670157
9 1 0.0007353 0.3331540 0.3334521
10 1 0.1671444 0.5004962 0.4990140
11 1 0.9999835 0.3333666 0.6669332
12 1 0.1659295 0.4997633 0.8336780
13 1 0.0003915 0.6650966 0.0004427
14 1 0.1670743 0.8339030 0.1667925
15 1 0.0003167 0.6677219 0.3338913
16 1 0.1673565 0.8335332 0.4986345
17 1 0.9992382 0.6674039 0.6670968
18 1 0.1669898 0.8331015 0.8336430
19 1 0.3335191 0.0004299 0.9990921
20 1 0.5006880 0.1664509 0.1656249
21 1 0.3336676 0.0002935 0.3325881
22 1 0.5006640 0.1667013 0.5003148
23 1 0.3336776 0.0004136 0.6671343
24 1 0.4987973 0.1668548 0.8334357
25 1 0.3333132 0.3336033 0.0005364
26 1 0.4993182 0.5002877 0.1669831
27 1 0.3324444 0.3333480 0.3327663
28 1 0.5004223 0.4997136 0.5005442
29 1 0.3332232 0.3338434 0.6664104
30 1 0.4999012 0.5010835 0.8335558
31 1 0.3329624 0.6664669 0.9999625
32 1 0.4998361 0.8334786 0.1666273
33 1 0.3336722 0.6667826 0.3333632
34 1 0.5000604 0.8328604 0.4999896
35 1 0.3334958 0.6662434 0.6668947
36 1 0.5004184 0.8321127 0.8329487
37 1 0.6670626 0.9997094 0.9995059
38 1 0.8330640 0.1662221 0.1681649
39 1 0.6674424 0.0003837 0.3324657
40 1 0.8338313 0.1665976 0.4990910
41 1 0.6661136 0.0002437 0.6671039
42 1 0.8333137 0.1668893 0.8337309
43 1 0.6662069 0.3331315 0.9996658
44 1 0.8332910 0.4990238 0.1669350
45 1 0.6667539 0.3331189 0.3333469
46 1 0.8335139 0.5001093 0.5003870
47 1 0.6665282 0.3328481 0.6672150
48 1 0.8332247 0.4997490 0.8324452
49 1 0.6668231 0.6664388 0.9993725
50 1 0.8330417 0.8338495 0.1660693
51 1 0.6671466 0.6666522 0.3341143
52 1 0.8332453 0.8332844 0.5002274
53 1 0.6664568 0.6667411 0.6666265
54 1 0.8327071 0.8331924 0.8338164
ITEM: TIMESTEP
15
ITEM: NUMBER OF ATOMS
54
ITEM: BOX BOUNDS pp pp pp
-4.304955 4.304955
-4.304955 4.304955
-4.304955 4.304955
ITEM: ATOMS id type xs ys zs
1 1 0.9998267 0.9988900 0.0003490
2 1 0.1671462 0.1667498 0.1674289
3 1 0.0000460 0.9998354 0.3337810
4 1 0.1667886 0.1669446 0.4996990
5 1 0.9995693 0.0002030 0.6667721
6 1 0.1661465 0.1666594 0.8334719
7 1 0.9996002 0.3339656 0.0006355
8 1 0.1666658 0.4995435 0.1663752
9 1 0.0000125 0.3331018 0.3328885
10 1 0.1663286 0.4995503 0.4995606
11 1 0.0004210 0.3333932 0.6666198
12 1 0.1674173 0.4995358 0.8330642
13 1 0.9997930 0.6660444 0.9998616
14 1 0.1672688 0.8334806 0.1682208
15 1 0.0004330 0.6678620 0.3332089
16 1 0.1663913 0.8341153 0.4999529
17 1 0.9992222 0.6674705 0.6674958
18 1 0.1668128 0.8331974 0.8337518
19 1 0.3330003 0.0006597 0.9998102
20 1 0.4994552 0.1673829 0.1672331
21 1 0.3339920 0.9999066 0.3333029
22 1 0.5000498 0.1664377 0.4995070
23 1 0.3337943 0.0001995 0.6663110
24 1 0.4998499 0.1667008 0.8336913
25 1 0.3333820 0.3344546 0.9999230
26 1 0.4996268 0.5000636 0.1664107
27 1 0.3329234 0.3340434 0.3326137
28 1 0.5005119 0.4996355 0.5005180
29 1 0.3324708 0.3327103 0.6668307
30 1 0.4995286 0.4989884 0.8335654
31 1 0.3333542 0.6672267 0.0006539
32 1 0.4992838 0.8337131 0.1670584
33 1 0.3335720 0.6670871 0.3327293
34 1 0.4996929 0.8334846 0.4997161
35 1 0.3337484 0.6666025 0.6666119
36 1 0.5002255 0.8341072 0.8336356
37 1 0.6663596 0.9998090 0.9999565
38 1 0.8335696 0.1663714 0.1668155