ITEM: TIMESTEP
1
ITEM: NUMBER OF ATOMS
16
ITEM: BOX BOUNDS pp pp pp
-2.86997 2.86997
-2.86997 2.86997
-2.86997 2.86997
ITEM: ATOMS id type xs ys zs
1 1 0.0003310 0.9997962 0.0003750
2 1 0.2506222 0.2499768 0.2501946
3 1 0.9999969 0.0005181 0.5005415
4 1 0.2508258 0.2499478 0.7495020
5 1 0.0003700 0.5002969 0.0002568
6 1 0.2496171 0.7504248 0.2487138
7 1 0.0012019 0.5018758 0.5000147
8 1 0.2483734 0.7504440 0.7499917
9 1 0.5003683 0.9992886 0.9995489
10 1 0.7496206 0.2495683 0.2513324
11 1 0.4996877 0.0000763 0.5003425
12 1 0.7483047 0.2501700 0.7491970
13 1 0.4994875 0.4993999 0.9996844
14 1 0.7497944 0.7510855 0.2496505
15 1 0.5002758 0.5013480 0.4999578
16 1 0.7498743 0.7497385 0.7496852
ITEM: TIMESTEP
2
ITEM: NUMBER OF ATOMS
16
ITEM: BOX BOUNDS pp pp pp
-2.86997 2.86997
-2.86997 2.86997
-2.86997 2.86997
ITEM: ATOMS id type xs ys zs
1 1 0.9999320 0.0007416 0.9985844
2 1 0.2501750 0.2495272 0.2506920
3 1 0.0004374 0.9993502 0.5020363
4 1 0.2499725 0.2513652 0.7486871
5 1 0.0006404 0.4996292 0.9986823
6 1 0.2490690 0.7494451 0.2497263
7 1 0.0006917 0.4995923 0.4987989
8 1 0.2496666 0.7503695 0.7503047
9 1 0.4999160 0.0008579 0.9992148
10 1 0.7498589 0.2499122 0.2497771
11 1 0.4994810 0.0003154 0.5007210
12 1 0.7486417 0.2503907 0.7506204
13 1 0.5011761 0.4990625 0.9995022
14 1 0.7510375 0.7505149 0.2516329
15 1 0.4988481 0.4997043 0.4992045
16 1 0.7502887 0.7505140 0.7498676
ITEM: TIMESTEP
3
ITEM: NUMBER OF ATOMS
16
ITEM: BOX BOUNDS pp pp pp
-2.86997 2.86997
-2.86997 2.86997
-2.86997 2.86997
ITEM: ATOMS id type xs ys zs
1 1 0.0006390 0.9998480 0.0009937
2 1 0.2494430 0.2506960 0.2508891
3 1 0.0007043 0.0013310 0.5000406
4 1 0.2494215 0.2488222 0.7510381
5 1 0.0007609 0.4996717 0.0001800
6 1 0.2504932 0.7517609 0.2501313
7 1 0.9997337 0.4990390 0.4998712
8 1 0.2498694 0.7505174 0.7489606
9 1 0.4992374 0.0002768 0.0010248
10 1 0.7495771 0.2498614 0.2492905
11 1 0.5005284 0.9997027 0.5001877
12 1 0.7496338 0.2502007 0.7500790
13 1 0.5009466 0.4997675 0.0010773
14 1 0.7509302 0.7491796 0.2499909
15 1 0.5011314 0.5005726 0.5014573
16 1 0.7500252 0.7497649 0.7499950
ITEM: TIMESTEP
4
ITEM: NUMBER OF ATOMS
16
ITEM: BOX BOUNDS pp pp pp
-2.86997 2.86997
-2.86997 2.86997
-2.86997 2.86997
ITEM: ATOMS id type xs ys zs
1 1 0.0007562 0.9983307 0.9990071
2 1 0.2497219 0.2505067 0.2498696
3 1 0.9993692 0.9995644 0.5012741
4 1 0.2502267 0.2498494 0.7496574
5 1 0.0003759 0.4986058 0.0002785
6 1 0.2497855 0.7494644 0.2501034
7 1 0.0005257 0.5005990 0.4979459
8 1 0.2500231 0.7489591 0.7501671
9 1 0.4980508 0.9989211 0.0003302
10 1 0.7497786 0.2498025 0.2494049
11 1 0.4995739 0.9992431 0.5004954
12 1 0.7502977 0.2497978 0.7501107
13 1 0.4998812 0.4996570 0.0001213
14 1 0.7503237 0.7503749 0.2511672
15 1 0.5004420 0.4993131 0.4995016
16 1 0.7496440 0.7505543 0.7496122
ITEM: TIMESTEP
5
ITEM: NUMBER OF ATOMS
16
ITEM: BOX BOUNDS pp pp pp
-2.86997 2.86997
-2.86997 2.86997
-2.86997 2.86997
ITEM: ATOMS id type xs ys zs
1 1 0.9992949 0.0013002 0.9995049
2 1 0.2503157 0.2506793 0.2506706
3 1 0.9996492 0.0010759 0.4999630
4 1 0.2505218 0.2498850 0.7504274
5 1 0.0000345 0.5004225 0.9987556
6 1 0.2485013 0.7505476 0.2493253
7 1 0.0009158 0.4990348 0.4998811
8 1 0.2506008 0.7498921 0.7495331
9 1 0.4996840 0.9998917 0.0002783
10 1 0.7489484 0.2495421 0.2501965
11 1 0.4996137 0.9989979 0.5008727
12 1 0.7507122 0.2500714 0.7502338
13 1 0.5005675 0.4993092 0.9995920
14 1 0.7503377 0.7499031 0.2493222
15 1 0.5000087 0.4996401 0.4993527
16 1 0.7518648 0.7495322 0.7501705
ITEM: TIMESTEP
6
ITEM: NUMBER OF ATOMS
16
ITEM: BOX BOUNDS pp pp pp
-2.86997 2.86997
-2.86997 2.86997
-2.86997 2.86997
ITEM: ATOMS id type xs ys zs
1 1 0.9999466 0.9997552 0.9989760
2 1 0.2518208 0.2493296 0.2496799
3 1 0.9994194 0.9996033 0.4994124
4 1 0.2495355 0.2500937 0.7502972
5 1 0.0006300 0.5009471 0.0000197
6 1 0.2507000 0.7498938 0.2505709
7 1 0.9994883 0.5002754 0.5008607
8 1 0.2500006 0.7499022 0.7492001
9 1 0.4992638 0.0008313 0.0003205
10 1 0.7490713 0.2498706 0.2500492
11 1 0.5004774 0.9993810 0.4990239
12 1 0.7504980 0.2494252 0.7502051
13 1 0.5002071 0.5009914 0.0007359
14 1 0.7493051 0.7509691 0.2505116
15 1 0.4994859 0.5005910 0.4993903
16 1 0.7514921 0.7495217 0.7497037
ITEM: TIMESTEP
7
ITEM: NUMBER OF ATOMS
16
ITEM: BOX BOUNDS pp pp pp
-2.86997 2.86997
-2.86997 2.86997
-2.86997 2.86997
ITEM: ATOMS id type xs ys zs
1 1 0.0014012 0.0005804 0.0001581
2 1 0.2490713 0.2506352 0.2506554
3 1 0.0003681 0.0001043 0.5010651
4 1 0.2507623 0.2499563 0.7490600
5 1 0.0003132 0.4999059 0.9995052
6 1 0.2498334 0.7498571 0.2501184
7 1 0.9997001 0.5008205 0.4995646
8 1 0.2502755 0.7492634 0.7516778
9 1 0.5011285 0.0003393 0.9986489
10 1 0.7502283 0.2501559 0.2491666
11 1 0.4992394 0.9992969 0.4985698
12 1 0.7497399 0.2507592 0.7508144
13 1 0.5002302 0.4982765 0.9992632
14 1 0.7505876 0.7504999 0.2501642
15 1 0.5001340 0.5003600 0.5004826
16 1 0.7503642 0.7496435 0.7503586
ITEM: TIMESTEP
8
ITEM: NUMBER OF ATOMS
16
ITEM: BOX BOUNDS pp pp pp
-2.86997 2.86997
-2.86997 2.86997
-2.86997 2.86997
ITEM: ATOMS id type xs ys zs
1 1 0.9993713 0.9994638 0.9996256
2 1 0.2489147 0.2501226 0.2500201
3 1 0.9989411 0.9991367 0.5017091
4 1 0.2499825 0.2483275 0.7505555
5 1 0.9995749 0.5007673 0.0006806
6 1 0.2490493 0.7489224 0.2502749
7 1 0.9994591 0.5004590 0.5000543
8 1 0.2498468 0.7506524 0.7502445
9 1 0.4990216 0.9984965 0.0004253
10 1 0.7503227 0.2504706 0.2509193
11 1 0.4985714 0.9994718 0.4988804
12 1 0.7508628 0.2502957 0.7498368
13 1 0.4996933 0.5008216 0.9999041
14 1 0.7494355 0.7503874 0.2501072
15 1 0.5001650 0.4999055 0.4998073
16 1 0.7494646 0.7484869 0.7487169
ITEM: TIMESTEP
9
ITEM: NUMBER OF ATOMS
16
ITEM: BOX BOUNDS pp pp pp
-2.86997 2.86997
-2.86997 2.86997
-2.86997 2.86997
ITEM: ATOMS id type xs ys zs
1 1 0.0018110 0.0001963 0.0007720
2 1 0.2498838 0.2509591 0.2496398
3 1 0.0002989 0.9999284 0.4997327
4 1 0.2507710 0.2520087 0.7506734
5 1 0.0001086 0.5010004 0.0014845
6 1 0.2511097 0.7507755 0.2503442
7 1 0.9999738 0.5006381 0.5007585
8 1 0.2491376 0.7497711 0.7498950
9 1 0.5006012 0.0000175 0.9995917
10 1 0.7495529 0.2485262 0.2514680
11 1 0.5008512 0.9991506 0.4984663
12 1 0.7485056 0.2499432 0.7508173
13 1 0.5000181 0.5009122 0.9988902
14 1 0.7475994 0.7502759 0.2501199
15 1 0.4995679 0.5007212 0.4996318
16 1 0.7496093 0.7497466 0.7484620
ITEM: TIMESTEP
10
ITEM: NUMBER OF ATOMS
16
ITEM: BOX BOUNDS pp pp pp
-2.86997 2.86997
-2.86997 2.86997
-2.86997 2.86997
ITEM: ATOMS id type xs ys zs
1 1 0.0007855 0.9997037 0.9993736
2 1 0.2494878 0.2504685 0.2500880
3 1 0.9988221 0.9994356 0.5005026
4 1 0.2507383 0.2498914 0.7483914
5 1 0.9992864 0.5005629 0.0008056
6 1 0.2515201 0.7503247 0.2497663
7 1 0.9998380 0.4998916 0.4992468
8 1 0.2494288 0.7498928 0.7503354
9 1 0.5007395 0.0005113 0.9997091
10 1 0.7497396 0.2488786 0.2509746
11 1 0.4994890 0.9998663 0.4990929
12 1 0.7498817 0.2496938 0.7499888
13 1 0.5005496 0.4998989 0.9992223
14 1 0.7492841 0.7509286 0.2520398
15 1 0.4993027 0.5001742 0.5012100
16 1 0.7506064 0.7499495 0.7489351
ITEM: TIMESTEP
11
ITEM: NUMBER OF ATOMS
16
ITEM: BOX BOUNDS pp pp pp
-2.86997 2.86997
-2.86997 2.86997
-2.86997 2.86997
ITEM: ATOMS id type xs ys zs
1 1 0.0007374 0.9994966 0.9994907
2 1 0.2500788 0.2504638 0.2482562
3 1 0.0002454 0.9989100 0.4997538
4 1 0.2501754 0.2510831 0.7500673
5 1 0.9987318 0.4996028 0.0009500
6 1 0.2495001 0.7504452 0.2522931
7 1 0.0000364 0.5011058 0.4983719
8 1 0.2496784 0.7503967 0.7510611
9 1 0.5009418 0.0008258 0.0003298
10 1 0.7515817 0.2495926 0.2505325
11 1 0.5002260 0.9995260 0.5009298
12 1 0.7492117 0.2505561 0.7491481
13 1 0.4998047 0.5000717 0.9994711
14 1 0.7492608 0.7497540 0.2494599
15 1 0.5009903 0.5001894 0.5000935
16 1 0.7507607 0.7510519 0.7486004
ITEM: TIMESTEP
12
ITEM: NUMBER OF ATOMS
16
ITEM: BOX BOUNDS pp pp pp
-2.86997 2.86997
-2.86997 2.86997
-2.86997 2.86997
ITEM: ATOMS id type xs ys zs
1 1 0.0009654 0.9995679 0.0001872
2 1 0.2508947 0.2504738 0.2510112
3 1 0.0001870 0.0007455 0.5008322
4 1 0.2503999 0.2501402 0.7480486
5 1 0.0013249 0.5014272 0.9997186
6 1 0.2501170 0.7497216 0.2512897
7 1 0.0006247 0.5000171 0.5006493
8 1 0.2508101 0.7503965 0.7492713
9 1 0.5008570 0.9995464 0.0002878
10 1 0.7503062 0.2498298 0.2507712
11 1 0.5019960 0.0002715 0.5007411
12 1 0.7504726 0.2492083 0.7490099
13 1 0.5005765 0.4988653 0.9990343
14 1 0.7503414 0.7497855 0.2497545
15 1 0.5009849 0.4999207 0.4996711
16 1 0.7504029 0.7495043 0.7507401
ITEM: TIMESTEP
13
ITEM: NUMBER OF ATOMS
16
ITEM: BOX BOUNDS pp pp pp
-2.86997 2.86997
-2.86997 2.86997
-2.86997 2.86997
ITEM: ATOMS id type xs ys zs
1 1 0.9997254 0.9991631 0.9999041
2 1 0.2498938 0.2495625 0.2495424
3 1 0.0007184 0.9989230 0.4999473
4 1 0.2504688 0.2494048 0.7501226
5 1 0.9999394 0.5002323 0.0000586
6 1 0.2497631 0.7508305 0.2505313
7 1 0.9997937 0.4990854 0.4984553
8 1 0.2494252 0.7498636 0.7505275
9 1 0.5012189 0.9991425 0.9990683
10 1 0.7502559 0.2505002 0.2502155
11 1 0.5005180 0.0012881 0.5001637
12 1 0.7483980 0.2502899 0.7490062
13 1 0.4999445 0.4999391 0.0006705
14 1 0.7507099 0.7505214 0.2508398
15 1 0.5002941 0.4990712 0.5004142
16 1 0.7517651 0.7501780 0.7492434
ITEM: TIMESTEP
14
ITEM: NUMBER OF ATOMS
16
ITEM: BOX BOUNDS pp pp pp
-2.86997 2.86997
-2.86997 2.86997
-2.86997 2.86997
ITEM: ATOMS id type xs ys zs
1 1 0.0002947 0.9989337 0.0005604
2 1 0.2498917 0.2492648 0.2499957
3 1 0.0006251 0.0010313 0.4990630
4 1 0.2502482 0.2497568 0.7500473
5 1 0.9998373 0.5004130 0.0004349
6 1 0.2480126 0.7493716 0.2496448
7 1 0.0002383 0.4985561 0.5011516
8 1 0.2499247 0.7499608 0.7507183
9 1 0.4995787 0.0006388 0.0015648
10 1 0.7489607 0.2496226 0.2490939
11 1 0.5006374 0.9996485 0.4998596
12 1 0.7505758 0.2500624 0.7504478
13 1 0.4995729 0.5004859 0.9993054
14 1 0.7515177 0.7516171 0.2497593
15 1 0.4990584 0.5005343 0.5009115
16 1 0.7502935 0.7499117 0.7493470
ITEM: TIMESTEP
15
ITEM: NUMBER OF ATOMS
16
ITEM: BOX BOUNDS pp pp pp
-2.86997 2.86997
-2.86997 2.86997
-2.86997 2.86997
ITEM: ATOMS id type xs ys zs
1 1 0.9989081 0.0004895 0.9995629
2 1 0.2498737 0.2503719 0.2505810
3 1 0.9976343 0.0012833 0.4993891
4 1 0.2492053 0.2492097 0.7483428
5 1 0.9995272 0.4988032 0.9999849
6 1 0.2494673 0.7495769 0.2516268
7 1 0.9996414 0.4985659 0.5003678
8 1 0.2507330 0.7497213 0.7517780
9 1 0.4999948 0.9997585 0.9997200
10 1 0.7504645 0.2495669 0.2481554
11 1 0.5012008 0.9996776 0.4994040
12 1 0.7507509 0.2508674 0.7498004
13 1 0.4991016 0.5000374 0.0000166
14 1 0.7493478 0.7507269 0.2505033
15 1 0.5015104 0.5006175 0.4985427
16 1 0.7504872 0.7498343 0.7502167
ITEM: TIMESTEP
16
ITEM: NUMBER OF ATOMS
16
ITEM: BOX BOUNDS pp pp pp
-2.86997 2.86997
-2.86997 2.86997
-2.86997 2.86997
ITEM: ATOMS id type xs ys zs
1 1 0.0003990 0.9997003 0.0012125
2 1 0.2491303 0.2496295 0.2498866
3 1 0.0001757 0.9992794 0.5007691
4 1 0.2501558 0.2491453 0.7506303
5 1 0.0003907 0.4989273 0.9992127
6 1 0.2498297 0.7506831 0.2501348
7 1 0.0005452 0.4991970 0.5000878
8 1 0.2502051 0.7499745 0.7494939
9 1 0.4995729 0.9997806 0.9996683
10 1 0.7501814 0.2507758 0.2511548
11 1 0.4998398 0.9996190 0.4992559
12 1 0.7505509 0.2502775 0.7495125
13 1 0.5006751 0.5003288 0.0016444
14 1 0.7498391 0.7489745 0.2510271
15 1 0.5007078 0.4997852 0.4999030
16 1 0.7517155 0.7484103 0.7508285
ITEM: TIMESTEP
17
ITEM: NUMBER OF ATOMS
16
ITEM: BOX BOUNDS pp pp pp
-2.86997 2.86997
-2.86997 2.86997
-2.86997 2.86997
ITEM: ATOMS id type xs ys zs
1 1 0.0000952 0.0000565 0.9992015
2 1 0.2487638 0.2492915 0.2494501
3 1 0.0001711 0.0003851 0.5011470
4 1 0.2487392 0.2498450 0.7494486
5 1 0.0001029 0.5006506 0.9996786
6 1 0.2497090 0.7499042 0.2508182
7 1 0.0005951 0.5006555 0.5016935
8 1 0.2490955 0.7509809 0.7499269
9 1 0.4996424 0.9994160 0.9990732
10 1 0.7497237 0.2506042 0.2498641
11 1 0.5000257 0.9989690 0.4990883
12 1 0.7496961 0.2496243 0.7488274
13 1 0.4991987 0.4997570 0.9999522
14 1 0.7485253 0.7503209 0.2501538
15 1 0.4992463 0.4997054 0.4984552
16 1 0.7496015 0.7500545 0.7501408
ITEM: TIMESTEP
18
ITEM: NUMBER OF ATOMS
16
ITEM: BOX BOUNDS pp pp pp
-2.86997 2.86997
-2.86997 2.86997
-2.86997 2.86997
ITEM: ATOMS id type xs ys zs
1 1 0.0010784 0.0003143 0.9988974
2 1 0.2498873 0.2504601 0.2490310
3 1 0.0002984 0.0003946 0.4995219
4 1 0.2504328 0.2503636 0.7494216
5 1 0.0002446 0.5003281 0.9996275
6 1 0.2498455 0.7502394 0.2502298
7 1 0.9986899 0.4996994 0.5000760
8 1 0.2491103 0.7501492 0.7493898
9 1 0.5004656 0.9995812 0.0006959
10 1 0.7506039 0.2496722 0.2505373
11 1 0.5005651 0.0002656 0.4986900
12 1 0.7496820 0.2492534 0.7493230
13 1 0.5003574 0.4992504 0.9993860
14 1 0.7510465 0.7508989 0.2493115
15 1 0.4996460 0.4994212 0.5002166
16 1 0.7500124 0.7503427 0.7496959
ITEM: TIMESTEP
19
ITEM: NUMBER OF ATOMS
16
ITEM: BOX BOUNDS pp pp pp
-2.86997 2.86997
-2.86997 2.86997
-2.86997 2.86997
ITEM: ATOMS id type xs ys zs
1 1 0.0008026 0.0010339 0.0008597
2 1 0.2511243 0.2504419 0.2508207
3 1 0.9999369 0.0004460 0.5000676
4 1 0.2504245 0.2517978 0.7502358
5 1 0.9999772 0.5000349 0.9991365
6 1 0.2493873 0.7499488 0.2488183
7 1 0.9995202 0.5006494 0.4990271
8 1 0.2514704 0.7495380 0.7494830
9 1 0.5001854 0.9999063 0.0002078
10 1 0.7489096 0.2494077 0.2493473
11 1 0.5005981 0.9994825 0.4998963
12 1 0.7490116 0.2510921 0.7492729
13 1 0.5001875 0.4992590 0.0012090
14 1 0.7512366 0.7508405 0.2504364
15 1 0.4997219 0.5007281 0.5004188
16 1 0.7522237 0.7496854 0.7506852
ITEM: TIMESTEP
20
ITEM: NUMBER OF ATOMS
16
ITEM: BOX BOUNDS pp pp pp
-2.86997 2.86997
-2.86997 2.86997
-2.86997 2.86997
ITEM: ATOMS id type xs ys zs
1 1 0.9996526 0.0001184 0.0004844
2 1 0.2498162 0.2504697 0.2495833
3 1 0.9998404 0.0008545 0.4998098
4 1 0.2498512 0.2495447 0.7494250
5 1 0.0000193 0.5012678 0.9985804
6 1 0.2485295 0.7504549 0.2501543
7 1 0.0012679 0.4996168 0.5005881
8 1 0.2500988 0.7488766 0.7502663
9 1 0.4988275 0.0001791 0.9995393
10 1 0.7504714 0.2498683 0.2500400
11 1 0.5004029 0.0010146 0.4999291
12 1 0.7497794 0.2498417 0.7486912
13 1 0.4996862 0.5005945 0.0013811
14 1 0.7496121 0.7485799 0.2508323
15 1 0.5002411 0.4996131 0.5003775
16 1 0.7498678 0.7498126 0.7503616
ITEM: TIMESTEP
21
ITEM: NUMBER OF ATOMS
16
ITEM: BOX BOUNDS pp pp pp
-2.86997 2.86997
-2.86997 2.86997
-2.86997 2.86997
ITEM: ATOMS id type xs ys zs
1 1 0.0024992 0.9992577 0.9998679
2 1 0.2505188 0.2493332 0.2498328
3 1 0.0010727 0.9996892 0.5005410
4 1 0.2501931 0.2493023 0.7496559
5 1 0.9984407 0.5000779 0.9999985
6 1 0.2508626 0.7501229 0.2520102
7 1 0.0005042 0.4997125 0.5011563
8 1 0.2493956 0.7499666 0.7487623
9 1 0.5004751 0.9993645 0.9987748
10 1 0.7508047 0.2507454 0.2500143
11 1 0.4996754 0.9996805 0.5000595
12 1 0.7495601 0.2498093 0.7501635
13 1 0.4993290 0.4998963 0.9979430
14 1 0.7504226 0.7490982 0.2492940
15 1 0.5005444 0.4992315 0.4993472
16 1 0.7503947 0.7498947 0.7495305
ITEM: TIMESTEP
22
ITEM: NUMBER OF ATOMS
16
ITEM: BOX BOUNDS pp pp pp
-2.86997 2.86997
-2.86997 2.86997
-2.86997 2.86997
ITEM: ATOMS id type xs ys zs
1 1 0.0000581 0.0003610 0.0008376
2 1 0.2502309 0.2496290 0.2507418
3 1 0.9997040 0.9982788 0.4989182
4 1 0.2504222 0.2498066 0.7496799
5 1 0.9999258 0.4987924 0.0002331
6 1 0.2500489 0.7494935 0.2496417
7 1 0.0014669 0.5000677 0.5013270
8 1 0.2483194 0.7507200 0.7511271
9 1 0.5011110 0.9995749 0.0001349
10 1 0.7503865 0.2505752 0.2499325
11 1 0.5007533 0.9992815 0.5003517
12 1 0.7488731 0.2496066 0.7508216
13 1 0.4990063 0.5009403 0.9988030
14 1 0.7493475 0.7492172 0.2504557
15 1 0.4993854 0.5007614 0.4990183
16 1 0.7496698 0.7504767 0.7500591
ITEM: TIMESTEP
23
ITEM: NUMBER OF ATOMS
16
ITEM: BOX BOUNDS pp pp pp
-2.86997 2.86997
-2.86997 2.86997
-2.86997 2.86997
ITEM: ATOMS id type xs ys zs
1 1 0.9999392 0.0001987 0.0001825
2 1 0.2497487 0.2503822 0.2506418
3 1 0.9988026 0.0000193 0.5012233
4 1 0.2484582 0.2501324 0.7491535
5 1 0.0001910 0.4998912 0.9990318
6 1 0.2497877 0.7491193 0.2498855
7 1 0.9996343 0.4990638 0.4999631
8 1 0.2497861 0.7509523 0.7485295
9 1 0.5008873 0.0003080 0.9987786
10 1 0.7498440 0.2503753 0.2500623
11 1 0.5003338 0.9982976 0.4995964
12 1 0.7484527 0.2503234 0.7484218
13 1 0.5015399 0.5003111 0.9998204
14 1 0.7506670 0.7494824 0.2506676
15 1 0.4995689 0.4987760 0.5010077
16 1 0.7499534 0.7515513 0.7493192
ITEM: TIMESTEP
24
ITEM: NUMBER OF ATOMS
16
ITEM: BOX BOUNDS pp pp pp
-2.86997 2.86997
-2.86997 2.86997
-2.86997 2.86997
ITEM: ATOMS id type xs ys zs
1 1 0.0000305 0.9990916 0.0006591
2 1 0.2492848 0.2491062 0.2493214
3 1 0.9996306 0.9988820 0.5002702
4 1 0.2502667 0.2486001 0.7509403
5 1 0.9999880 0.5002464 0.0003723
6 1 0.2503531 0.7506507 0.2493748
7 1 0.9997968 0.5003053 0.5004758
8 1 0.2498937 0.7498896 0.7506108
9 1 0.5009146 0.9999517 0.9995487
10 1 0.7496444 0.2501994 0.2492271
11 1 0.5014138 0.9985233 0.5004316
12 1 0.7504445 0.2483199 0.7487420
13 1 0.4998316 0.4997395 0.9995084
14 1 0.7503278 0.7493342 0.2497318
15 1 0.4992758 0.4989340 0.4998253
16 1 0.7508667 0.7502769 0.7499201
ITEM: TIMESTEP
25
ITEM: NUMBER OF ATOMS
16
ITEM: BOX BOUNDS pp pp pp
-2.86997 2.86997
-2.86997 2.86997
-2.86997 2.86997
ITEM: ATOMS id type xs ys zs
1 1 0.0005756 0.9996485 0.9997867
2 1 0.2502848 0.2502216 0.2490594
3 1 0.0002427 0.0003758 0.5003076
4 1 0.2498773 0.2487132 0.7499135
5 1 0.0007151 0.5012877 0.9994215
6 1 0.2515829 0.7494556 0.2499447
7 1 0.9998062 0.5009339 0.4997690
8 1 0.2491021 0.7502031 0.7493930
9 1 0.5001276 0.9996429 0.0012200
10 1 0.7517249 0.2490295 0.2503929
11 1 0.5002055 0.9982414 0.4998807
12 1 0.7503903 0.2509596 0.7504266
13 1 0.5008649 0.4984084 0.0011633
14 1 0.7504371 0.7499119 0.2506373
15 1 0.5006671 0.4986611 0.4991540
16 1 0.7500856 0.7496684 0.7501551
ITEM: TIMESTEP
26
ITEM: NUMBER OF ATOMS
16
ITEM: BOX BOUNDS pp pp pp
-2.86997 2.86997
-2.86997 2.86997
-2.86997 2.86997
ITEM: ATOMS id type xs ys zs
1 1 0.9999519 0.9997005 0.0003163
2 1 0.2499846 0.2502819 0.2503607
3 1 0.0004078 0.9988302 0.4994464
4 1 0.2497358 0.2492958 0.7511375
5 1 0.9999604 0.4990816 0.0019053
6 1 0.2501002 0.7494466 0.2494914
7 1 0.9999892 0.5005613 0.5004457
8 1 0.2502389 0.7502446 0.7491989
9 1 0.5020333 0.9998497 0.9999539
10 1 0.7495559 0.2497534 0.2493594
11 1 0.5001930 0.0011234 0.5004556
12 1 0.7497384 0.2499796 0.7511349
13 1 0.4993606 0.4993582 0.0006797
14 1 0.7501979 0.7511001 0.2502442
15 1 0.4996605 0.4989982 0.5002207
16 1 0.7502779 0.7493120 0.7501009
ITEM: TIMESTEP
27
ITEM: NUMBER OF ATOMS
16
ITEM: BOX BOUNDS pp pp pp
-2.86997 2.86997
-2.86997 2.86997
-2.86997 2.86997
ITEM: ATOMS id type xs ys zs
1 1 0.9997645 0.0001972 0.0000320
2 1 0.2494906 0.2507682 0.2490420
3 1 0.9993323 0.0002852 0.4996929
4 1 0.2505893 0.2503945 0.7512019
5 1 0.9976969 0.5006866 0.9993668
6 1 0.2487267 0.7494527 0.2510797
7 1 0.0012820 0.4998098 0.5008992
8 1 0.2500142 0.7500063 0.7495895
9 1 0.4991357 0.0001120 0.9987765
10 1 0.7494992 0.2499197 0.2507316
11 1 0.5001186 0.0004361 0.4997323
12 1 0.7482346 0.2498424 0.7470072
13 1 0.4990188 0.4994413 0.0012331
14 1 0.7493488 0.7490244 0.2498668
15 1 0.5016142 0.4998725 0.4990068
16 1 0.7498600 0.7516678 0.7493523
ITEM: TIMESTEP
28
ITEM: NUMBER OF ATOMS
16
ITEM: BOX BOUNDS pp pp pp
-2.86997 2.86997
-2.86997 2.86997
-2.86997 2.86997
ITEM: ATOMS id type xs ys zs
1 1 0.9988094 0.9991359 0.9997468
2 1 0.2498412 0.2497669 0.2496832
3 1 0.9989020 0.9995502 0.4993626
4 1 0.2491894 0.2507205 0.7494024
5 1 0.0002064 0.4994774 0.9993822
6 1 0.2500602 0.7508375 0.2493624
7 1 0.9999185 0.5009175 0.5012266
8 1 0.2487700 0.7504921 0.7505694
9 1 0.4993869 0.0004945 0.0006732
10 1 0.7505921 0.2511913 0.2506138
11 1 0.4993671 0.0016034 0.4990728
12 1 0.7492258 0.2509568 0.7485162
13 1 0.5002135 0.4997289 0.0009092
14 1 0.7485430 0.7502418 0.2512900
15 1 0.4994227 0.5014016 0.4999327
16 1 0.7500705 0.7509026 0.7509857
ITEM: TIMESTEP
29
ITEM: NUMBER OF ATOMS
16
ITEM: BOX BOUNDS pp pp pp
-2.86997 2.86997
-2.86997 2.86997
-2.86997 2.86997
ITEM: ATOMS id type xs ys zs
1 1 0.0010145 0.0013059 0.0008867
2 1 0.2505228 0.2488834 0.2499902
3 1 0.9999115 0.0000027 0.4999049
4 1 0.2498951 0.2518284 0.7503316
5 1 0.0000834 0.5013368 0.9999130
6 1 0.2487656 0.7491739 0.2497716
7 1 0.9996284 0.5012520 0.4997474
8 1 0.2496310 0.7505513 0.7495272
9 1 0.4995698 0.0007185 0.9994248
10 1 0.7490653 0.2511213 0.2488294
11 1 0.4985665 0.9993094 0.5003865
12 1 0.7503825 0.2503018 0.7510558
13 1 0.4996558 0.4994643 0.9989343
14 1 0.7509395 0.7501658 0.2499942
15 1 0.5003950 0.4997154 0.5006276
16 1 0.7500406 0.7500366 0.7500584
ITEM: TIMESTEP
30
ITEM: NUMBER OF ATOMS
16
ITEM: BOX BOUNDS pp pp pp
-2.86997 2.86997
-2.86997 2.86997
-2.86997 2.86997
ITEM: ATOMS id type xs ys zs
1 1 0.0002928 0.0018521 0.9989121
2 1 0.2504287 0.2501367 0.2495986
3 1 0.9993077 0.9991860 0.5000482
4 1 0.2507636 0.2519508 0.7508936
5 1 0.0003987 0.5007043 0.0003395
6 1 0.2516774 0.7513314 0.2486790
7 1 0.9989618 0.5007765 0.4993107
8 1 0.2497716 0.7520143 0.7495658
9 1 0.4981727 0.0005738 0.9998011
10 1 0.7494689 0.2504201 0.2492370
11 1 0.4992566 0.9997443 0.4986876
12 1 0.7499068 0.2495981 0.7504145
13 1 0.5015992 0.4992383 0.9992351
14 1 0.7498141 0.7497616 0.2512503
15 1 0.5009259 0.5009107 0.4996186
16 1 0.7489959 0.7494464 0.7504824
ITEM: TIMESTEP
31
ITEM: NUMBER OF ATOMS
16
ITEM: BOX BOUNDS pp pp pp
-2.86997 2.86997
-2.86997 2.86997
-2.86997 2.86997
ITEM: ATOMS id type xs ys zs
1 1 0.0005654 0.0008736 0.9978200
2 1 0.2505262 0.2496560 0.2508210
3 1 0.0007427 0.9998433 0.5000604
4 1 0.2495684 0.2492486 0.7504249
5 1 0.9995782 0.4992721 0.0004797
6 1 0.2491017 0.7494478 0.2499913
7 1 0.0007031 0.5002388 0.4989227
8 1 0.2500297 0.7505366 0.7511308
9 1 0.4991103 0.0002945 0.9994135
10 1 0.7500591 0.2506386 0.2509680
11 1 0.5004885 0.9999908 0.5001482
12 1 0.7509359 0.2507251 0.7506786
13 1 0.4992208 0.5006638 0.9997628
14 1 0.7495292 0.7487052 0.2495333
15 1 0.4999927 0.5002545 0.5002579
16 1 0.7495149 0.7501072 0.7507444
ITEM: TIMESTEP
32
ITEM: NUMBER OF ATOMS
16
ITEM: BOX BOUNDS pp pp pp
-2.86997 2.86997
-2.86997 2.86997
-2.86997 2.86997
ITEM: ATOMS id type xs ys zs
1 1 0.0002865 0.9990927 0.9993571
2 1 0.2497050 0.2498849 0.2499295
3 1 0.9989507 0.0001487 0.4998397
4 1 0.2504503 0.2496503 0.7510305
5 1 0.9995272 0.5011402 0.0008959
6 1 0.2502561 0.7492396 0.2496663
7 1 0.0004050 0.5005976 0.4997066
8 1 0.2505010 0.7491868 0.7495828
9 1 0.4996965 0.0004354 0.0010586
10 1 0.7493522 0.2499752 0.2492680
11 1 0.4995257 0.9997874 0.4993947
12 1 0.7494764 0.2495943 0.7494176
13 1 0.5005071 0.5014565 0.0006698
14 1 0.7503904 0.7486183 0.2490745
15 1 0.4983033 0.4993988 0.4995150
16 1 0.7510507 0.7491509 0.7487104
ITEM: TIMESTEP
33
ITEM: NUMBER OF ATOMS
16
ITEM: BOX BOUNDS pp pp pp
-2.86997 2.86997
-2.86997 2.86997
-2.86997 2.86997
ITEM: ATOMS id type xs ys zs
1 1 0.0011036 0.9997384 0.9990372
2 1 0.2496372 0.2500433 0.2509725
3 1 0.9991607 0.9999954 0.5007550
4 1 0.2478680 0.2507267 0.7510153
5 1 0.9993673 0.5012334 0.9998453
6 1 0.2491674 0.7501841 0.2508083
7 1 0.0003480 0.4997844 0.4999844
8 1 0.2497873 0.7500766 0.7503863
9 1 0.5016210 0.0004710 0.9987808
10 1 0.7504160 0.2504972 0.2508079
11 1 0.4995037 0.9996446 0.5009203
12 1 0.7498598 0.2506872 0.7500146
13 1 0.5011232 0.4994466 0.9998326
14 1 0.7497688 0.7506058 0.2505892
15 1 0.5017009 0.4998914 0.5010721
16 1 0.7512431 0.7506600 0.7489103
ITEM: TIMESTEP
34
ITEM: NUMBER OF ATOMS
16
ITEM: BOX BOUNDS pp pp pp
-2.86997 2.86997
-2.86997 2.86997
-2.86997 2.86997
ITEM: ATOMS id type xs ys zs
1 1 0.9997003 0.9998180 0.9988460
2 1 0.2502032 0.2498962 0.2494434
3 1 0.9999226 0.0001561 0.5000862
4 1 0.2491312 0.2499901 0.7503904
5 1 0.0006946 0.5001326 0.9998941
6 1 0.2487410 0.7492798 0.2501252
7 1 0.0001727 0.4990390 0.5009928
8 1 0.2502689 0.7499716 0.7504073
9 1 0.5007255 0.9997975 0.0001785
10 1 0.7497447 0.2488121 0.2494810
11 1 0.5002064 0.0002337 0.5002349
12 1 0.7498113 0.2499717 0.7508003
13 1 0.4991786 0.5005440 0.9993908
14 1 0.7506222 0.7497359 0.2512348
15 1 0.5002736 0.5003762 0.4992678
16 1 0.7501801 0.7502967 0.7502380
ITEM: TIMESTEP
35
ITEM: NUMBER OF ATOMS
16
ITEM: BOX BOUNDS pp pp pp
-2.86997 2.86997
-2.86997 2.86997
-2.86997 2.86997
ITEM: ATOMS id type xs ys zs
1 1 0.9995235 0.0009873 0.9997240
2 1 0.2489261 0.2500177 0.2501224
3 1 0.0004514 0.0000107 0.5006254
4 1 0.2493120 0.2492206 0.7505462
5 1 0.9998770 0.5002501 0.9997740
6 1 0.2511879 0.7499419 0.2517302
7 1 0.0006293 0.5002771 0.5006682
8 1 0.2514779 0.7478399 0.7494283
9 1 0.4993937 0.0003447 0.9998288
10 1 0.7511179 0.2503795 0.2503623
11 1 0.4998571 0.9991277 0.4999634
12 1 0.7512193 0.2498445 0.7486231
13 1 0.5002906 0.4993779 0.0001356
14 1 0.7507630 0.7476231 0.2498394
15 1 0.4996497 0.4993732 0.4991566
16 1 0.7505079 0.7496392 0.7505464
ITEM: TIMESTEP
36
ITEM: NUMBER OF ATOMS
16
ITEM: BOX BOUNDS pp pp pp
-2.86997 2.86997
-2.86997 2.86997
-2.86997 2.86997
ITEM: ATOMS id type xs ys zs
1 1 0.0003762 0.9999857 0.9992224
2 1 0.2504798 0.2496118 0.2501232
3 1 0.0008033 0.9990362 0.4991364
4 1 0.2503154 0.2505356 0.7494603
5 1 0.0003174 0.5005352 0.0003385
6 1 0.2503192 0.7496517 0.2504689
7 1 0.9995501 0.5007621 0.5004401
8 1 0.2493567 0.7503407 0.7498967
9 1 0.4985242 0.9997027 0.9983663
10 1 0.7496507 0.2504391 0.2507433
11 1 0.5005918 0.0014965 0.5003616
12 1 0.7496806 0.2496333 0.7506002
13 1 0.5004714 0.5012326 0.0014230
14 1 0.7498585 0.7488097 0.2496028
15 1 0.4991992 0.4998968 0.5014215
16 1 0.7505682 0.7495630 0.7501199
ITEM: TIMESTEP
37
ITEM: NUMBER OF ATOMS
16
ITEM: BOX BOUNDS pp pp pp
-2.86997 2.86997
-2.86997 2.86997
-2.86997 2.86997
ITEM: ATOMS id type xs ys zs
1 1 0.9998871 0.9990633 0.9999058
2 1 0.2491866 0.2490884 0.2504264
3 1 0.0000082 0.0004502 0.5004506
4 1 0.2491258 0.2514593 0.7518911
5 1 0.0009394 0.4983907 0.9998029
6 1 0.2515078 0.7502809 0.2503567
7 1 0.0006308 0.5001285 0.4999154
8 1 0.2508548 0.7501964 0.7495415
9 1 0.4998333 0.9996565 0.0012097
10 1 0.7507186 0.2495890 0.2506406
11 1 0.4990026 0.9987342 0.5011753
12 1 0.7502451 0.2494537 0.7501878
13 1 0.4999421 0.5004313 0.0001746
14 1 0.7505276 0.7505991 0.2492284
15 1 0.5002471 0.4996706 0.5002170
16 1 0.7501527 0.7499649 0.7501791
ITEM: TIMESTEP
38
ITEM: NUMBER OF ATOMS
16
ITEM: BOX BOUNDS pp pp pp
-2.86997 2.86997
-2.86997 2.86997
-2.86997 2.86997
ITEM: ATOMS id type xs ys zs
1 1 0.9995722 0.0000904 0.9999899
2 1 0.2510248 0.2486012 0.2491592
3 1 0.0004668 0.9989982 0.4986246
4 1 0.2503222 0.2498504 0.7508933
5 1 0.9996381 0.4999555 0.9995800
6 1 0.2499412 0.7494953 0.2506876
7 1 0.0016220 0.4994061 0.5002053
8 1 0.2508959 0.7496056 0.7492565
9 1 0.5004445 0.9994474 0.0005784
10 1 0.7484354 0.2503318 0.2494445
11 1 0.4983557 0.9992791 0.4990985
12 1 0.7493645 0.2499669 0.7506598
13 1 0.5008912 0.5004809 0.0009560
14 1 0.7510956 0.7503049 0.2499698
15 1 0.4991138 0.5003964 0.5005104
16 1 0.7499330 0.7497676 0.7495049
ITEM: TIMESTEP
39
ITEM: NUMBER OF ATOMS
16
ITEM: BOX BOUNDS pp pp pp
-2.86997 2.86997
-2.86997 2.86997
-2.86997 2.86997
ITEM: ATOMS id type xs ys zs
1 1 0.0005160 0.0013514 0.9988489
2 1 0.2491752 0.2498449 0.2499995
3 1 0.0008873 0.0002910 0.5016016
4 1 0.2502971 0.2494048 0.7498521
5 1 0.9994879 0.5000799 0.9996988
6 1 0.2498885 0.7495101 0.2504265
7 1 0.0003703 0.4988614 0.4989190
8 1 0.2498308 0.7506100 0.7491257
9 1 0.5008176 0.0006144 0.9995596
10 1 0.7515803 0.2497520 0.2505540
11 1 0.5003467 0.9998567 0.5007654
12 1 0.7500999 0.2504662 0.7499560
13 1 0.4991151 0.5008757 0.0012357
14 1 0.7482909 0.7500864 0.2511832
15 1 0.4997209 0.5003203 0.5000320
16 1 0.7505507 0.7506389 0.7506406
ITEM: TIMESTEP
40
ITEM: NUMBER OF ATOMS
16
ITEM: BOX BOUNDS pp pp pp
-2.86997 2.86997
-2.86997 2.86997
-2.86997 2.86997
ITEM: ATOMS id type xs ys zs
1 1 0.9996591 0.9995857 0.0012886
2 1 0.2513312 0.2495509 0.2497235
3 1 0.0004756 0.9987077 0.4998974
4 1 0.2505700 0.2500095 0.7502069
5 1 0.0001305 0.5010636 0.0002484
6 1 0.2497773 0.7506019 0.2507678
7 1 0.9996380 0.5006146 0.4988056
8 1 0.2508728 0.7497744 0.7501510
9 1 0.5016053 0.0001865 0.9994699
10 1 0.7491012 0.2515496 0.2499077
11 1 0.5004362 0.9990114 0.4997626
12 1 0.7492810 0.2503687 0.7511071
13 1 0.4999690 0.4991815 0.0004745
14 1 0.7503498 0.7502978 0.2486667
15 1 0.5003667 0.5001768 0.5017396
16 1 0.7500744 0.7504436 0.7497578
ITEM: TIMESTEP
41
ITEM: NUMBER OF ATOMS
16
ITEM: BOX BOUNDS pp pp pp
-2.86997 2.86997
-2.86997 2.86997
-2.86997 2.86997
ITEM: ATOMS id type xs ys zs
1 1 0.9995307 0.0009154 0.9997468
2 1 0.2495039 0.2501321 0.2496910
3 1 0.0005048 0.0005487 0.4993648
4 1 0.2500814 0.2511254 0.7490860
5 1 0.0010791 0.5010896 0.0002554
6 1 0.2503758 0.7494479 0.2490572
7 1 0.0009038 0.5005954 0.5001173
8 1 0.2515814 0.7480556 0.7495572
9 1 0.4995999 0.0000270 0.0007102
10 1 0.7507387 0.2495876 0.2498969
11 1 0.4994958 0.9995952 0.4997325
12 1 0.7498737 0.2497272 0.7496176
13 1 0.5006162 0.4989470 0.9997289
14 1 0.7502679 0.7500479 0.2477110
15 1 0.5005567 0.5005098 0.4994115
16 1 0.7486334 0.7499079 0.7494434
ITEM: TIMESTEP
42
ITEM: NUMBER OF ATOMS
16
ITEM: BOX BOUNDS pp pp pp
-2.86997 2.86997
-2.86997 2.86997
-2.86997 2.86997
ITEM: ATOMS id type xs ys zs
1 1 0.9999541 0.0004389 0.9999265
2 1 0.2511366 0.2487862 0.2497496
3 1 0.0001836 0.9999128 0.5003969
4 1 0.2496337 0.2504179 0.7498853
5 1 0.9998600 0.4994687 0.0001723
6 1 0.2490829 0.7500751 0.2501045
7 1 0.0002594 0.5004550 0.5003204
8 1 0.2502586 0.7490904 0.7493424
9 1 0.4997187 0.9999344 0.0010465
10 1 0.7494681 0.2495300 0.2511449
11 1 0.4997113 0.0006242 0.4996439
12 1 0.7506208 0.2504673 0.7504117
13 1 0.4981651 0.5003237 0.0013227
14 1 0.7499617 0.7501243 0.2496562
15 1 0.5010467 0.5000609 0.5003854
16 1 0.7493316 0.7501493 0.7509865
ITEM: TIMESTEP
43
ITEM: NUMBER OF ATOMS
16
ITEM: BOX BOUNDS pp pp pp
-2.86997 2.86997
-2.86997 2.86997
-2.86997 2.86997
ITEM: ATOMS id type xs ys zs
1 1 0.0004097 0.0003553 0.0003774
2 1 0.2505440 0.2499832 0.2509091
3 1 0.9992326 0.9999752 0.4996679
4 1 0.2501528 0.2511697 0.7502542
5 1 0.0004096 0.4996501 0.0002446
6 1 0.2493915 0.7491878 0.2494703
7 1 0.0013130 0.4995410 0.5002604
8 1 0.2489551 0.7489691 0.7501252
9 1 0.5001752 0.9992472 0.0001512
10 1 0.7497951 0.2493889 0.2504293
11 1 0.4995959 0.0004514 0.5000616
12 1 0.7495257 0.2506930 0.7500665
13 1 0.4994253 0.5012142 0.0010604